n -t * -s 0  -x 154 -y 220 -Z 0 -z 20  -v circle -c black
n -t * -s 1  -x 376 -y 216 -Z 0 -z 20  -v circle -c black
n -t * -s 2  -x 248 -y 294 -Z 0 -z 20  -v circle -c black
n -t * -s 3  -x 290 -y 92 -Z 0 -z 20  -v circle -c black
n -t * -s 4  -x 348 -y 298 -Z 0 -z 20  -v circle -c black
V -t * -v 1.0a5 -a 0
W -t * -x 476 -y 398
A -t * -n 1 -p 0 -o 0x7fffffff -c 30 -a 1
A -t * -h 1 -m 1073741823 -s 0
+ -t 0.031538939 -s 1 -d -1 -p message -e 32 -c 2 -a 0 -i 0 -k RTR 
- -t 0.031538939 -s 1 -d -1 -p message -e 32 -c 2 -a 0 -i 0 -k RTR
h -t 0.031538939 -s 1 -d -1 -p message -e 32 -c 2 -a 0 -i 0 -k RTR
+ -t 0.031853939 -s 1 -d -1 -p message -e 90 -c 2 -a 0 -i 0 -k MAC 
- -t 0.031853939 -s 1 -d -1 -p message -e 90 -c 2 -a 0 -i 0 -k MAC
h -t 0.031853939 -s 1 -d -1 -p message -e 90 -c 2 -a 0 -i 0 -k MAC
r -t 0.032574228 -s 4 -d -1 -p message -e 32 -c 2 -a 0 -i 0 -k MAC
r -t 0.032574439 -s 2 -d -1 -p message -e 32 -c 2 -a 0 -i 0 -k MAC
r -t 0.032574442 -s 3 -d -1 -p message -e 32 -c 2 -a 0 -i 0 -k MAC
r -t 0.032574679 -s 0 -d -1 -p message -e 32 -c 2 -a 0 -i 0 -k MAC
r -t 0.032599228 -s 4 -d -1 -p message -e 32 -c 2 -a 0 -i 0 -k RTR
r -t 0.032599439 -s 2 -d -1 -p message -e 32 -c 2 -a 0 -i 0 -k RTR
r -t 0.032599442 -s 3 -d -1 -p message -e 32 -c 2 -a 0 -i 0 -k RTR
r -t 0.032599679 -s 0 -d -1 -p message -e 32 -c 2 -a 0 -i 0 -k RTR
+ -t 0.179336133 -s 2 -d -1 -p message -e 32 -c 2 -a 0 -i 1 -k RTR 
- -t 0.179336133 -s 2 -d -1 -p message -e 32 -c 2 -a 0 -i 1 -k RTR
h -t 0.179336133 -s 2 -d -1 -p message -e 32 -c 2 -a 0 -i 1 -k RTR
+ -t 0.179451133 -s 2 -d -1 -p message -e 90 -c 2 -a 0 -i 1 -k MAC 
- -t 0.179451133 -s 2 -d -1 -p message -e 90 -c 2 -a 0 -i 1 -k MAC
h -t 0.179451133 -s 2 -d -1 -p message -e 90 -c 2 -a 0 -i 1 -k MAC
r -t 0.180171467 -s 4 -d -1 -p message -e 32 -c 2 -a 0 -i 1 -k MAC
r -t 0.180171532 -s 0 -d -1 -p message -e 32 -c 2 -a 0 -i 1 -k MAC
r -t 0.180171633 -s 1 -d -1 -p message -e 32 -c 2 -a 0 -i 1 -k MAC
r -t 0.180171821 -s 3 -d -1 -p message -e 32 -c 2 -a 0 -i 1 -k MAC
r -t 0.180196467 -s 4 -d -1 -p message -e 32 -c 2 -a 0 -i 1 -k RTR
r -t 0.180196532 -s 0 -d -1 -p message -e 32 -c 2 -a 0 -i 1 -k RTR
r -t 0.180196633 -s 1 -d -1 -p message -e 32 -c 2 -a 0 -i 1 -k RTR
r -t 0.180196821 -s 3 -d -1 -p message -e 32 -c 2 -a 0 -i 1 -k RTR
+ -t 0.888747441 -s 3 -d -1 -p message -e 32 -c 2 -a 0 -i 2 -k RTR 
- -t 0.888747441 -s 3 -d -1 -p message -e 32 -c 2 -a 0 -i 2 -k RTR
h -t 0.888747441 -s 3 -d -1 -p message -e 32 -c 2 -a 0 -i 2 -k RTR
+ -t 0.889062441 -s 3 -d -1 -p message -e 90 -c 2 -a 0 -i 2 -k MAC 
- -t 0.889062441 -s 3 -d -1 -p message -e 90 -c 2 -a 0 -i 2 -k MAC
h -t 0.889062441 -s 3 -d -1 -p message -e 90 -c 2 -a 0 -i 2 -k MAC
r -t 0.889782944 -s 1 -d -1 -p message -e 32 -c 2 -a 0 -i 2 -k MAC
r -t 0.889783063 -s 0 -d -1 -p message -e 32 -c 2 -a 0 -i 2 -k MAC
r -t 0.889783128 -s 2 -d -1 -p message -e 32 -c 2 -a 0 -i 2 -k MAC
r -t 0.889783154 -s 4 -d -1 -p message -e 32 -c 2 -a 0 -i 2 -k MAC
r -t 0.889807944 -s 1 -d -1 -p message -e 32 -c 2 -a 0 -i 2 -k RTR
r -t 0.889808063 -s 0 -d -1 -p message -e 32 -c 2 -a 0 -i 2 -k RTR
r -t 0.889808128 -s 2 -d -1 -p message -e 32 -c 2 -a 0 -i 2 -k RTR
r -t 0.889808154 -s 4 -d -1 -p message -e 32 -c 2 -a 0 -i 2 -k RTR
+ -t 1.000000000 -s 0 -d -1 -p cbr -e 1000 -c 2 -a 0 -i 3 -k AGT 
- -t 1.000000000 -s 0 -d -1 -p cbr -e 1000 -c 2 -a 0 -i 3 -k AGT
h -t 1.000000000 -s 0 -d -1 -p cbr -e 1000 -c 2 -a 0 -i 3 -k AGT
+ -t 1.000000000 -s 0 -d 1 -p cbr -e 1020 -c 2 -a 0 -i 3 -k RTR 
- -t 1.000000000 -s 0 -d 1 -p cbr -e 1020 -c 2 -a 0 -i 3 -k RTR
h -t 1.000000000 -s 0 -d 1 -p cbr -e 1020 -c 2 -a 0 -i 3 -k RTR
+ -t 1.000000000 -s 2 -d -1 -p tcp -e 40 -c 2 -a 0 -i 4 -k AGT 
- -t 1.000000000 -s 2 -d -1 -p tcp -e 40 -c 2 -a 0 -i 4 -k AGT
h -t 1.000000000 -s 2 -d -1 -p tcp -e 40 -c 2 -a 0 -i 4 -k AGT
+ -t 1.000000000 -s 2 -d 3 -p tcp -e 60 -c 2 -a 0 -i 4 -k RTR 
- -t 1.000000000 -s 2 -d 3 -p tcp -e 60 -c 2 -a 0 -i 4 -k RTR
h -t 1.000000000 -s 2 -d 3 -p tcp -e 60 -c 2 -a 0 -i 4 -k RTR
+ -t 1.000395000 -s 2 -d -1 -p ARP -e 86 -c 2 -a 0 -i 0 -k MAC 
- -t 1.000395000 -s 2 -d -1 -p ARP -e 86 -c 2 -a 0 -i 0 -k MAC
h -t 1.000395000 -s 2 -d -1 -p ARP -e 86 -c 2 -a 0 -i 0 -k MAC
r -t 1.001083334 -s 4 -d -1 -p ARP -e 28 -c 2 -a 0 -i 0 -k MAC
r -t 1.001083399 -s 0 -d -1 -p ARP -e 28 -c 2 -a 0 -i 0 -k MAC
r -t 1.001083500 -s 1 -d -1 -p ARP -e 28 -c 2 -a 0 -i 0 -k MAC
r -t 1.001083688 -s 3 -d -1 -p ARP -e 28 -c 2 -a 0 -i 0 -k MAC
+ -t 1.001273399 -s 0 -d -1 -p ARP -e 86 -c 2 -a 0 -i 0 -k MAC 
- -t 1.001273399 -s 0 -d -1 -p ARP -e 86 -c 2 -a 0 -i 0 -k MAC
h -t 1.001273399 -s 0 -d -1 -p ARP -e 86 -c 2 -a 0 -i 0 -k MAC
r -t 1.001961798 -s 2 -d -1 -p ARP -e 28 -c 2 -a 0 -i 0 -k MAC
r -t 1.001962021 -s 3 -d -1 -p ARP -e 28 -c 2 -a 0 -i 0 -k MAC
r -t 1.001962096 -s 4 -d -1 -p ARP -e 28 -c 2 -a 0 -i 0 -k MAC
r -t 1.001962139 -s 1 -d -1 -p ARP -e 28 -c 2 -a 0 -i 0 -k MAC
+ -t 1.002037139 -s 1 -d -1 -p RTS -e 44 -c 2 -a 0 -i 0 -k MAC 
- -t 1.002037139 -s 1 -d -1 -p RTS -e 44 -c 2 -a 0 -i 0 -k MAC
h -t 1.002037139 -s 1 -d -1 -p RTS -e 44 -c 2 -a 0 -i 0 -k MAC
r -t 1.002389879 -s 0 -d -1 -p RTS -e 44 -c 2 -a 0 -i 0 -k MAC
+ -t 1.002399879 -s 0 -d -1 -p CTS -e 38 -c 2 -a 0 -i 0 -k MAC 
- -t 1.002399879 -s 0 -d -1 -p CTS -e 38 -c 2 -a 0 -i 0 -k MAC
h -t 1.002399879 -s 0 -d -1 -p CTS -e 38 -c 2 -a 0 -i 0 -k MAC
r -t 1.002704619 -s 1 -d -1 -p CTS -e 38 -c 2 -a 0 -i 0 -k MAC
+ -t 1.002714619 -s 1 -d -1 -p ARP -e 86 -c 2 -a 0 -i 0 -k MAC 
- -t 1.002714619 -s 1 -d -1 -p ARP -e 86 -c 2 -a 0 -i 0 -k MAC
h -t 1.002714619 -s 1 -d -1 -p ARP -e 86 -c 2 -a 0 -i 0 -k MAC
r -t 1.003403359 -s 0 -d -1 -p ARP -e 28 -c 2 -a 0 -i 0 -k MAC
+ -t 1.003413359 -s 0 -d -1 -p ACK -e 38 -c 2 -a 0 -i 0 -k MAC 
- -t 1.003413359 -s 0 -d -1 -p ACK -e 38 -c 2 -a 0 -i 0 -k MAC
h -t 1.003413359 -s 0 -d -1 -p ACK -e 38 -c 2 -a 0 -i 0 -k MAC
r -t 1.003718099 -s 1 -d -1 -p ACK -e 38 -c 2 -a 0 -i 0 -k MAC
+ -t 1.003827982 -s 3 -d -1 -p RTS -e 44 -c 2 -a 0 -i 0 -k MAC 
- -t 1.003827982 -s 3 -d -1 -p RTS -e 44 -c 2 -a 0 -i 0 -k MAC
h -t 1.003827982 -s 3 -d -1 -p RTS -e 44 -c 2 -a 0 -i 0 -k MAC
r -t 1.004180670 -s 2 -d -1 -p RTS -e 44 -c 2 -a 0 -i 0 -k MAC
+ -t 1.004190670 -s 2 -d -1 -p CTS -e 38 -c 2 -a 0 -i 0 -k MAC 
- -t 1.004190670 -s 2 -d -1 -p CTS -e 38 -c 2 -a 0 -i 0 -k MAC
h -t 1.004190670 -s 2 -d -1 -p CTS -e 38 -c 2 -a 0 -i 0 -k MAC
r -t 1.004495357 -s 3 -d -1 -p CTS -e 38 -c 2 -a 0 -i 0 -k MAC
+ -t 1.004505357 -s 3 -d -1 -p ARP -e 86 -c 2 -a 0 -i 0 -k MAC 
- -t 1.004505357 -s 3 -d -1 -p ARP -e 86 -c 2 -a 0 -i 0 -k MAC
h -t 1.004505357 -s 3 -d -1 -p ARP -e 86 -c 2 -a 0 -i 0 -k MAC
r -t 1.005194045 -s 2 -d -1 -p ARP -e 28 -c 2 -a 0 -i 0 -k MAC
+ -t 1.005204045 -s 2 -d -1 -p ACK -e 38 -c 2 -a 0 -i 0 -k MAC 
- -t 1.005204045 -s 2 -d -1 -p ACK -e 38 -c 2 -a 0 -i 0 -k MAC
h -t 1.005204045 -s 2 -d -1 -p ACK -e 38 -c 2 -a 0 -i 0 -k MAC
r -t 1.005508733 -s 3 -d -1 -p ACK -e 38 -c 2 -a 0 -i 0 -k MAC
+ -t 1.005658045 -s 2 -d -1 -p RTS -e 44 -c 2 -a 0 -i 0 -k MAC 
- -t 1.005658045 -s 2 -d -1 -p RTS -e 44 -c 2 -a 0 -i 0 -k MAC
h -t 1.005658045 -s 2 -d -1 -p RTS -e 44 -c 2 -a 0 -i 0 -k MAC
r -t 1.006010733 -s 3 -d -1 -p RTS -e 44 -c 2 -a 0 -i 0 -k MAC
+ -t 1.006020733 -s 3 -d -1 -p CTS -e 38 -c 2 -a 0 -i 0 -k MAC 
- -t 1.006020733 -s 3 -d -1 -p CTS -e 38 -c 2 -a 0 -i 0 -k MAC
h -t 1.006020733 -s 3 -d -1 -p CTS -e 38 -c 2 -a 0 -i 0 -k MAC
r -t 1.006325420 -s 2 -d -1 -p CTS -e 38 -c 2 -a 0 -i 0 -k MAC
+ -t 1.006335420 -s 2 -d 3 -p tcp -e 118 -c 2 -a 0 -i 4 -k MAC 
- -t 1.006335420 -s 2 -d 3 -p tcp -e 118 -c 2 -a 0 -i 4 -k MAC
h -t 1.006335420 -s 2 -d 3 -p tcp -e 118 -c 2 -a 0 -i 4 -k MAC
r -t 1.007280108 -s 3 -d 3 -p tcp -e 60 -c 2 -a 0 -i 4 -k MAC
+ -t 1.007290108 -s 3 -d -1 -p ACK -e 38 -c 2 -a 0 -i 0 -k MAC 
- -t 1.007290108 -s 3 -d -1 -p ACK -e 38 -c 2 -a 0 -i 0 -k MAC
h -t 1.007290108 -s 3 -d -1 -p ACK -e 38 -c 2 -a 0 -i 0 -k MAC
r -t 1.007305108 -s 3 -d 3 -p tcp -e 60 -c 2 -a 0 -i 4 -k AGT
+ -t 1.007305108 -s 3 -d -1 -p ack -e 40 -c 2 -a 0 -i 5 -k AGT 
- -t 1.007305108 -s 3 -d -1 -p ack -e 40 -c 2 -a 0 -i 5 -k AGT
h -t 1.007305108 -s 3 -d -1 -p ack -e 40 -c 2 -a 0 -i 5 -k AGT
+ -t 1.007305108 -s 3 -d 2 -p ack -e 60 -c 2 -a 0 -i 5 -k RTR 
- -t 1.007305108 -s 3 -d 2 -p ack -e 60 -c 2 -a 0 -i 5 -k RTR
h -t 1.007305108 -s 3 -d 2 -p ack -e 60 -c 2 -a 0 -i 5 -k RTR
r -t 1.007594796 -s 2 -d -1 -p ACK -e 38 -c 2 -a 0 -i 0 -k MAC
+ -t 1.007704731 -s 0 -d -1 -p RTS -e 44 -c 2 -a 0 -i 0 -k MAC 
- -t 1.007704731 -s 0 -d -1 -p RTS -e 44 -c 2 -a 0 -i 0 -k MAC
h -t 1.007704731 -s 0 -d -1 -p RTS -e 44 -c 2 -a 0 -i 0 -k MAC
+ -t 1.008000000 -s 0 -d -1 -p cbr -e 1000 -c 2 -a 0 -i 6 -k AGT 
- -t 1.008000000 -s 0 -d -1 -p cbr -e 1000 -c 2 -a 0 -i 6 -k AGT
h -t 1.008000000 -s 0 -d -1 -p cbr -e 1000 -c 2 -a 0 -i 6 -k AGT
+ -t 1.008000000 -s 0 -d 1 -p cbr -e 1020 -c 2 -a 0 -i 6 -k RTR 
- -t 1.008000000 -s 0 -d 1 -p cbr -e 1020 -c 2 -a 0 -i 6 -k RTR
h -t 1.008000000 -s 0 -d 1 -p cbr -e 1020 -c 2 -a 0 -i 6 -k RTR
r -t 1.008057471 -s 1 -d -1 -p RTS -e 44 -c 2 -a 0 -i 0 -k MAC
+ -t 1.008067471 -s 1 -d -1 -p CTS -e 38 -c 2 -a 0 -i 0 -k MAC 
- -t 1.008067471 -s 1 -d -1 -p CTS -e 38 -c 2 -a 0 -i 0 -k MAC
h -t 1.008067471 -s 1 -d -1 -p CTS -e 38 -c 2 -a 0 -i 0 -k MAC
r -t 1.008372211 -s 0 -d -1 -p CTS -e 38 -c 2 -a 0 -i 0 -k MAC
+ -t 1.008382211 -s 0 -d 1 -p cbr -e 1078 -c 2 -a 0 -i 3 -k MAC 
- -t 1.008382211 -s 0 -d 1 -p cbr -e 1078 -c 2 -a 0 -i 3 -k MAC
h -t 1.008382211 -s 0 -d 1 -p cbr -e 1078 -c 2 -a 0 -i 3 -k MAC
+ -t 1.016000000 -s 0 -d -1 -p cbr -e 1000 -c 2 -a 0 -i 7 -k AGT 
- -t 1.016000000 -s 0 -d -1 -p cbr -e 1000 -c 2 -a 0 -i 7 -k AGT
h -t 1.016000000 -s 0 -d -1 -p cbr -e 1000 -c 2 -a 0 -i 7 -k AGT
+ -t 1.016000000 -s 0 -d 1 -p cbr -e 1020 -c 2 -a 0 -i 7 -k RTR 
- -t 1.016000000 -s 0 -d 1 -p cbr -e 1020 -c 2 -a 0 -i 7 -k RTR
h -t 1.016000000 -s 0 -d 1 -p cbr -e 1020 -c 2 -a 0 -i 7 -k RTR
r -t 1.017006951 -s 1 -d 1 -p cbr -e 1020 -c 2 -a 0 -i 3 -k MAC
+ -t 1.017016951 -s 1 -d -1 -p ACK -e 38 -c 2 -a 0 -i 0 -k MAC 
- -t 1.017016951 -s 1 -d -1 -p ACK -e 38 -c 2 -a 0 -i 0 -k MAC
h -t 1.017016951 -s 1 -d -1 -p ACK -e 38 -c 2 -a 0 -i 0 -k MAC
r -t 1.017031951 -s 1 -d 1 -p cbr -e 1020 -c 2 -a 0 -i 3 -k AGT
r -t 1.017321691 -s 0 -d -1 -p ACK -e 38 -c 2 -a 0 -i 0 -k MAC
+ -t 1.017671454 -s 3 -d -1 -p RTS -e 44 -c 2 -a 0 -i 0 -k MAC 
- -t 1.017671454 -s 3 -d -1 -p RTS -e 44 -c 2 -a 0 -i 0 -k MAC
h -t 1.017671454 -s 3 -d -1 -p RTS -e 44 -c 2 -a 0 -i 0 -k MAC
r -t 1.018024142 -s 2 -d -1 -p RTS -e 44 -c 2 -a 0 -i 0 -k MAC
+ -t 1.018034142 -s 2 -d -1 -p CTS -e 38 -c 2 -a 0 -i 0 -k MAC 
- -t 1.018034142 -s 2 -d -1 -p CTS -e 38 -c 2 -a 0 -i 0 -k MAC
h -t 1.018034142 -s 2 -d -1 -p CTS -e 38 -c 2 -a 0 -i 0 -k MAC
r -t 1.018338830 -s 3 -d -1 -p CTS -e 38 -c 2 -a 0 -i 0 -k MAC
+ -t 1.018348830 -s 3 -d 2 -p ack -e 118 -c 2 -a 0 -i 5 -k MAC 
- -t 1.018348830 -s 3 -d 2 -p ack -e 118 -c 2 -a 0 -i 5 -k MAC
h -t 1.018348830 -s 3 -d 2 -p ack -e 118 -c 2 -a 0 -i 5 -k MAC
r -t 1.019293517 -s 2 -d 2 -p ack -e 60 -c 2 -a 0 -i 5 -k MAC
+ -t 1.019303517 -s 2 -d -1 -p ACK -e 38 -c 2 -a 0 -i 0 -k MAC 
- -t 1.019303517 -s 2 -d -1 -p ACK -e 38 -c 2 -a 0 -i 0 -k MAC
h -t 1.019303517 -s 2 -d -1 -p ACK -e 38 -c 2 -a 0 -i 0 -k MAC
r -t 1.019318517 -s 2 -d 2 -p ack -e 60 -c 2 -a 0 -i 5 -k AGT
+ -t 1.019318517 -s 2 -d -1 -p tcp -e 1540 -c 2 -a 0 -i 8 -k AGT 
- -t 1.019318517 -s 2 -d -1 -p tcp -e 1540 -c 2 -a 0 -i 8 -k AGT
h -t 1.019318517 -s 2 -d -1 -p tcp -e 1540 -c 2 -a 0 -i 8 -k AGT
+ -t 1.019318517 -s 2 -d 3 -p tcp -e 1560 -c 2 -a 0 -i 8 -k RTR 
- -t 1.019318517 -s 2 -d 3 -p tcp -e 1560 -c 2 -a 0 -i 8 -k RTR
h -t 1.019318517 -s 2 -d 3 -p tcp -e 1560 -c 2 -a 0 -i 8 -k RTR
+ -t 1.019318517 -s 2 -d -1 -p tcp -e 1540 -c 2 -a 0 -i 9 -k AGT 
- -t 1.019318517 -s 2 -d -1 -p tcp -e 1540 -c 2 -a 0 -i 9 -k AGT
h -t 1.019318517 -s 2 -d -1 -p tcp -e 1540 -c 2 -a 0 -i 9 -k AGT
+ -t 1.019318517 -s 2 -d 3 -p tcp -e 1560 -c 2 -a 0 -i 9 -k RTR 
- -t 1.019318517 -s 2 -d 3 -p tcp -e 1560 -c 2 -a 0 -i 9 -k RTR
h -t 1.019318517 -s 2 -d 3 -p tcp -e 1560 -c 2 -a 0 -i 9 -k RTR
r -t 1.019608205 -s 3 -d -1 -p ACK -e 38 -c 2 -a 0 -i 0 -k MAC
+ -t 1.019937916 -s 0 -d -1 -p RTS -e 44 -c 2 -a 0 -i 0 -k MAC 
- -t 1.019937916 -s 0 -d -1 -p RTS -e 44 -c 2 -a 0 -i 0 -k MAC
h -t 1.019937916 -s 0 -d -1 -p RTS -e 44 -c 2 -a 0 -i 0 -k MAC
r -t 1.020290656 -s 1 -d -1 -p RTS -e 44 -c 2 -a 0 -i 0 -k MAC
+ -t 1.020300656 -s 1 -d -1 -p CTS -e 38 -c 2 -a 0 -i 0 -k MAC 
- -t 1.020300656 -s 1 -d -1 -p CTS -e 38 -c 2 -a 0 -i 0 -k MAC
h -t 1.020300656 -s 1 -d -1 -p CTS -e 38 -c 2 -a 0 -i 0 -k MAC
r -t 1.020605396 -s 0 -d -1 -p CTS -e 38 -c 2 -a 0 -i 0 -k MAC
+ -t 1.020615396 -s 0 -d 1 -p cbr -e 1078 -c 2 -a 0 -i 6 -k MAC 
- -t 1.020615396 -s 0 -d 1 -p cbr -e 1078 -c 2 -a 0 -i 6 -k MAC
h -t 1.020615396 -s 0 -d 1 -p cbr -e 1078 -c 2 -a 0 -i 6 -k MAC
+ -t 1.024000000 -s 0 -d -1 -p cbr -e 1000 -c 2 -a 0 -i 10 -k AGT 
- -t 1.024000000 -s 0 -d -1 -p cbr -e 1000 -c 2 -a 0 -i 10 -k AGT
h -t 1.024000000 -s 0 -d -1 -p cbr -e 1000 -c 2 -a 0 -i 10 -k AGT
+ -t 1.024000000 -s 0 -d 1 -p cbr -e 1020 -c 2 -a 0 -i 10 -k RTR 
- -t 1.024000000 -s 0 -d 1 -p cbr -e 1020 -c 2 -a 0 -i 10 -k RTR
h -t 1.024000000 -s 0 -d 1 -p cbr -e 1020 -c 2 -a 0 -i 10 -k RTR
r -t 1.029240136 -s 1 -d 1 -p cbr -e 1020 -c 2 -a 0 -i 6 -k MAC
+ -t 1.029250136 -s 1 -d -1 -p ACK -e 38 -c 2 -a 0 -i 0 -k MAC 
- -t 1.029250136 -s 1 -d -1 -p ACK -e 38 -c 2 -a 0 -i 0 -k MAC
h -t 1.029250136 -s 1 -d -1 -p ACK -e 38 -c 2 -a 0 -i 0 -k MAC
r -t 1.029265136 -s 1 -d 1 -p cbr -e 1020 -c 2 -a 0 -i 6 -k AGT
r -t 1.029554877 -s 0 -d -1 -p ACK -e 38 -c 2 -a 0 -i 0 -k MAC
+ -t 1.029724636 -s 2 -d -1 -p RTS -e 44 -c 2 -a 0 -i 0 -k MAC 
- -t 1.029724636 -s 2 -d -1 -p RTS -e 44 -c 2 -a 0 -i 0 -k MAC
h -t 1.029724636 -s 2 -d -1 -p RTS -e 44 -c 2 -a 0 -i 0 -k MAC
r -t 1.030077324 -s 3 -d -1 -p RTS -e 44 -c 2 -a 0 -i 0 -k MAC
+ -t 1.030087324 -s 3 -d -1 -p CTS -e 38 -c 2 -a 0 -i 0 -k MAC 
- -t 1.030087324 -s 3 -d -1 -p CTS -e 38 -c 2 -a 0 -i 0 -k MAC
h -t 1.030087324 -s 3 -d -1 -p CTS -e 38 -c 2 -a 0 -i 0 -k MAC
r -t 1.030392012 -s 2 -d -1 -p CTS -e 38 -c 2 -a 0 -i 0 -k MAC
+ -t 1.030402012 -s 2 -d 3 -p tcp -e 1618 -c 2 -a 0 -i 8 -k MAC 
- -t 1.030402012 -s 2 -d 3 -p tcp -e 1618 -c 2 -a 0 -i 8 -k MAC
h -t 1.030402012 -s 2 -d 3 -p tcp -e 1618 -c 2 -a 0 -i 8 -k MAC
+ -t 1.032000000 -s 0 -d -1 -p cbr -e 1000 -c 2 -a 0 -i 11 -k AGT 
- -t 1.032000000 -s 0 -d -1 -p cbr -e 1000 -c 2 -a 0 -i 11 -k AGT
h -t 1.032000000 -s 0 -d -1 -p cbr -e 1000 -c 2 -a 0 -i 11 -k AGT
+ -t 1.032000000 -s 0 -d 1 -p cbr -e 1020 -c 2 -a 0 -i 11 -k RTR 
- -t 1.032000000 -s 0 -d 1 -p cbr -e 1020 -c 2 -a 0 -i 11 -k RTR
h -t 1.032000000 -s 0 -d 1 -p cbr -e 1020 -c 2 -a 0 -i 11 -k RTR
+ -t 1.040000000 -s 0 -d -1 -p cbr -e 1000 -c 2 -a 0 -i 12 -k AGT 
- -t 1.040000000 -s 0 -d -1 -p cbr -e 1000 -c 2 -a 0 -i 12 -k AGT
h -t 1.040000000 -s 0 -d -1 -p cbr -e 1000 -c 2 -a 0 -i 12 -k AGT
+ -t 1.040000000 -s 0 -d 1 -p cbr -e 1020 -c 2 -a 0 -i 12 -k RTR 
- -t 1.040000000 -s 0 -d 1 -p cbr -e 1020 -c 2 -a 0 -i 12 -k RTR
h -t 1.040000000 -s 0 -d 1 -p cbr -e 1020 -c 2 -a 0 -i 12 -k RTR
r -t 1.043346699 -s 3 -d 3 -p tcp -e 1560 -c 2 -a 0 -i 8 -k MAC
+ -t 1.043356699 -s 3 -d -1 -p ACK -e 38 -c 2 -a 0 -i 0 -k MAC 
- -t 1.043356699 -s 3 -d -1 -p ACK -e 38 -c 2 -a 0 -i 0 -k MAC
h -t 1.043356699 -s 3 -d -1 -p ACK -e 38 -c 2 -a 0 -i 0 -k MAC
r -t 1.043371699 -s 3 -d 3 -p tcp -e 1560 -c 2 -a 0 -i 8 -k AGT
+ -t 1.043371699 -s 3 -d -1 -p ack -e 40 -c 2 -a 0 -i 13 -k AGT 
- -t 1.043371699 -s 3 -d -1 -p ack -e 40 -c 2 -a 0 -i 13 -k AGT
h -t 1.043371699 -s 3 -d -1 -p ack -e 40 -c 2 -a 0 -i 13 -k AGT
+ -t 1.043371699 -s 3 -d 2 -p ack -e 60 -c 2 -a 0 -i 13 -k RTR 
- -t 1.043371699 -s 3 -d 2 -p ack -e 60 -c 2 -a 0 -i 13 -k RTR
h -t 1.043371699 -s 3 -d 2 -p ack -e 60 -c 2 -a 0 -i 13 -k RTR
r -t 1.043661387 -s 2 -d -1 -p ACK -e 38 -c 2 -a 0 -i 0 -k MAC
+ -t 1.043751387 -s 2 -d -1 -p RTS -e 44 -c 2 -a 0 -i 0 -k MAC 
- -t 1.043751387 -s 2 -d -1 -p RTS -e 44 -c 2 -a 0 -i 0 -k MAC
h -t 1.043751387 -s 2 -d -1 -p RTS -e 44 -c 2 -a 0 -i 0 -k MAC
r -t 1.044104075 -s 3 -d -1 -p RTS -e 44 -c 2 -a 0 -i 0 -k MAC
+ -t 1.044114075 -s 3 -d -1 -p CTS -e 38 -c 2 -a 0 -i 0 -k MAC 
- -t 1.044114075 -s 3 -d -1 -p CTS -e 38 -c 2 -a 0 -i 0 -k MAC
h -t 1.044114075 -s 3 -d -1 -p CTS -e 38 -c 2 -a 0 -i 0 -k MAC
r -t 1.044418762 -s 2 -d -1 -p CTS -e 38 -c 2 -a 0 -i 0 -k MAC
+ -t 1.044428762 -s 2 -d 3 -p tcp -e 1618 -c 2 -a 0 -i 9 -k MAC 
- -t 1.044428762 -s 2 -d 3 -p tcp -e 1618 -c 2 -a 0 -i 9 -k MAC
h -t 1.044428762 -s 2 -d 3 -p tcp -e 1618 -c 2 -a 0 -i 9 -k MAC
+ -t 1.048000000 -s 0 -d -1 -p cbr -e 1000 -c 2 -a 0 -i 14 -k AGT 
- -t 1.048000000 -s 0 -d -1 -p cbr -e 1000 -c 2 -a 0 -i 14 -k AGT
h -t 1.048000000 -s 0 -d -1 -p cbr -e 1000 -c 2 -a 0 -i 14 -k AGT
+ -t 1.048000000 -s 0 -d 1 -p cbr -e 1020 -c 2 -a 0 -i 14 -k RTR 
- -t 1.048000000 -s 0 -d 1 -p cbr -e 1020 -c 2 -a 0 -i 14 -k RTR
h -t 1.048000000 -s 0 -d 1 -p cbr -e 1020 -c 2 -a 0 -i 14 -k RTR
+ -t 1.056000000 -s 0 -d -1 -p cbr -e 1000 -c 2 -a 0 -i 15 -k AGT 
- -t 1.056000000 -s 0 -d -1 -p cbr -e 1000 -c 2 -a 0 -i 15 -k AGT
h -t 1.056000000 -s 0 -d -1 -p cbr -e 1000 -c 2 -a 0 -i 15 -k AGT
+ -t 1.056000000 -s 0 -d 1 -p cbr -e 1020 -c 2 -a 0 -i 15 -k RTR 
- -t 1.056000000 -s 0 -d 1 -p cbr -e 1020 -c 2 -a 0 -i 15 -k RTR
h -t 1.056000000 -s 0 -d 1 -p cbr -e 1020 -c 2 -a 0 -i 15 -k RTR
d -t 1.056025000 -s 0 -d 1 -p cbr -e 1020 -c 2 -a 0 -i 15 -k IFQ
r -t 1.057373450 -s 3 -d 3 -p tcp -e 1560 -c 2 -a 0 -i 9 -k MAC
+ -t 1.057383450 -s 3 -d -1 -p ACK -e 38 -c 2 -a 0 -i 0 -k MAC 
- -t 1.057383450 -s 3 -d -1 -p ACK -e 38 -c 2 -a 0 -i 0 -k MAC
h -t 1.057383450 -s 3 -d -1 -p ACK -e 38 -c 2 -a 0 -i 0 -k MAC
r -t 1.057398450 -s 3 -d 3 -p tcp -e 1560 -c 2 -a 0 -i 9 -k AGT
+ -t 1.057398450 -s 3 -d -1 -p ack -e 40 -c 2 -a 0 -i 16 -k AGT 
- -t 1.057398450 -s 3 -d -1 -p ack -e 40 -c 2 -a 0 -i 16 -k AGT
h -t 1.057398450 -s 3 -d -1 -p ack -e 40 -c 2 -a 0 -i 16 -k AGT
+ -t 1.057398450 -s 3 -d 2 -p ack -e 60 -c 2 -a 0 -i 16 -k RTR 
- -t 1.057398450 -s 3 -d 2 -p ack -e 60 -c 2 -a 0 -i 16 -k RTR
h -t 1.057398450 -s 3 -d 2 -p ack -e 60 -c 2 -a 0 -i 16 -k RTR
r -t 1.057688138 -s 2 -d -1 -p ACK -e 38 -c 2 -a 0 -i 0 -k MAC
+ -t 1.057837450 -s 3 -d -1 -p RTS -e 44 -c 2 -a 0 -i 0 -k MAC 
- -t 1.057837450 -s 3 -d -1 -p RTS -e 44 -c 2 -a 0 -i 0 -k MAC
h -t 1.057837450 -s 3 -d -1 -p RTS -e 44 -c 2 -a 0 -i 0 -k MAC
r -t 1.058190138 -s 2 -d -1 -p RTS -e 44 -c 2 -a 0 -i 0 -k MAC
+ -t 1.058200138 -s 2 -d -1 -p CTS -e 38 -c 2 -a 0 -i 0 -k MAC 
- -t 1.058200138 -s 2 -d -1 -p CTS -e 38 -c 2 -a 0 -i 0 -k MAC
h -t 1.058200138 -s 2 -d -1 -p CTS -e 38 -c 2 -a 0 -i 0 -k MAC
r -t 1.058504826 -s 3 -d -1 -p CTS -e 38 -c 2 -a 0 -i 0 -k MAC
+ -t 1.058514826 -s 3 -d 2 -p ack -e 118 -c 2 -a 0 -i 13 -k MAC 
- -t 1.058514826 -s 3 -d 2 -p ack -e 118 -c 2 -a 0 -i 13 -k MAC
h -t 1.058514826 -s 3 -d 2 -p ack -e 118 -c 2 -a 0 -i 13 -k MAC
r -t 1.059459513 -s 2 -d 2 -p ack -e 60 -c 2 -a 0 -i 13 -k MAC
+ -t 1.059469513 -s 2 -d -1 -p ACK -e 38 -c 2 -a 0 -i 0 -k MAC 
- -t 1.059469513 -s 2 -d -1 -p ACK -e 38 -c 2 -a 0 -i 0 -k MAC
h -t 1.059469513 -s 2 -d -1 -p ACK -e 38 -c 2 -a 0 -i 0 -k MAC
r -t 1.059484513 -s 2 -d 2 -p ack -e 60 -c 2 -a 0 -i 13 -k AGT
+ -t 1.059484513 -s 2 -d -1 -p tcp -e 1540 -c 2 -a 0 -i 17 -k AGT 
- -t 1.059484513 -s 2 -d -1 -p tcp -e 1540 -c 2 -a 0 -i 17 -k AGT
h -t 1.059484513 -s 2 -d -1 -p tcp -e 1540 -c 2 -a 0 -i 17 -k AGT
+ -t 1.059484513 -s 2 -d 3 -p tcp -e 1560 -c 2 -a 0 -i 17 -k RTR 
- -t 1.059484513 -s 2 -d 3 -p tcp -e 1560 -c 2 -a 0 -i 17 -k RTR
h -t 1.059484513 -s 2 -d 3 -p tcp -e 1560 -c 2 -a 0 -i 17 -k RTR
+ -t 1.059484513 -s 2 -d -1 -p tcp -e 1540 -c 2 -a 0 -i 18 -k AGT 
- -t 1.059484513 -s 2 -d -1 -p tcp -e 1540 -c 2 -a 0 -i 18 -k AGT
h -t 1.059484513 -s 2 -d -1 -p tcp -e 1540 -c 2 -a 0 -i 18 -k AGT
+ -t 1.059484513 -s 2 -d 3 -p tcp -e 1560 -c 2 -a 0 -i 18 -k RTR 
- -t 1.059484513 -s 2 -d 3 -p tcp -e 1560 -c 2 -a 0 -i 18 -k RTR
h -t 1.059484513 -s 2 -d 3 -p tcp -e 1560 -c 2 -a 0 -i 18 -k RTR
r -t 1.059774201 -s 3 -d -1 -p ACK -e 38 -c 2 -a 0 -i 0 -k MAC
+ -t 1.059943912 -s 0 -d -1 -p RTS -e 44 -c 2 -a 0 -i 0 -k MAC 
- -t 1.059943912 -s 0 -d -1 -p RTS -e 44 -c 2 -a 0 -i 0 -k MAC
h -t 1.059943912 -s 0 -d -1 -p RTS -e 44 -c 2 -a 0 -i 0 -k MAC
r -t 1.060296652 -s 1 -d -1 -p RTS -e 44 -c 2 -a 0 -i 0 -k MAC
+ -t 1.060306652 -s 1 -d -1 -p CTS -e 38 -c 2 -a 0 -i 0 -k MAC 
- -t 1.060306652 -s 1 -d -1 -p CTS -e 38 -c 2 -a 0 -i 0 -k MAC
h -t 1.060306652 -s 1 -d -1 -p CTS -e 38 -c 2 -a 0 -i 0 -k MAC
r -t 1.060611392 -s 0 -d -1 -p CTS -e 38 -c 2 -a 0 -i 0 -k MAC
+ -t 1.060621392 -s 0 -d 1 -p cbr -e 1078 -c 2 -a 0 -i 7 -k MAC 
- -t 1.060621392 -s 0 -d 1 -p cbr -e 1078 -c 2 -a 0 -i 7 -k MAC
h -t 1.060621392 -s 0 -d 1 -p cbr -e 1078 -c 2 -a 0 -i 7 -k MAC
+ -t 1.064000000 -s 0 -d -1 -p cbr -e 1000 -c 2 -a 0 -i 19 -k AGT 
- -t 1.064000000 -s 0 -d -1 -p cbr -e 1000 -c 2 -a 0 -i 19 -k AGT
h -t 1.064000000 -s 0 -d -1 -p cbr -e 1000 -c 2 -a 0 -i 19 -k AGT
+ -t 1.064000000 -s 0 -d 1 -p cbr -e 1020 -c 2 -a 0 -i 19 -k RTR 
- -t 1.064000000 -s 0 -d 1 -p cbr -e 1020 -c 2 -a 0 -i 19 -k RTR
h -t 1.064000000 -s 0 -d 1 -p cbr -e 1020 -c 2 -a 0 -i 19 -k RTR
d -t 1.064025000 -s 0 -d 1 -p cbr -e 1020 -c 2 -a 0 -i 19 -k IFQ
r -t 1.069246133 -s 1 -d 1 -p cbr -e 1020 -c 2 -a 0 -i 7 -k MAC
+ -t 1.069256133 -s 1 -d -1 -p ACK -e 38 -c 2 -a 0 -i 0 -k MAC 
- -t 1.069256133 -s 1 -d -1 -p ACK -e 38 -c 2 -a 0 -i 0 -k MAC
h -t 1.069256133 -s 1 -d -1 -p ACK -e 38 -c 2 -a 0 -i 0 -k MAC
r -t 1.069271133 -s 1 -d 1 -p cbr -e 1020 -c 2 -a 0 -i 7 -k AGT
r -t 1.069560873 -s 0 -d -1 -p ACK -e 38 -c 2 -a 0 -i 0 -k MAC
+ -t 1.069710632 -s 2 -d -1 -p RTS -e 44 -c 2 -a 0 -i 0 -k MAC 
- -t 1.069710632 -s 2 -d -1 -p RTS -e 44 -c 2 -a 0 -i 0 -k MAC
h -t 1.069710632 -s 2 -d -1 -p RTS -e 44 -c 2 -a 0 -i 0 -k MAC
r -t 1.070063320 -s 3 -d -1 -p RTS -e 44 -c 2 -a 0 -i 0 -k MAC
+ -t 1.070073320 -s 3 -d -1 -p CTS -e 38 -c 2 -a 0 -i 0 -k MAC 
- -t 1.070073320 -s 3 -d -1 -p CTS -e 38 -c 2 -a 0 -i 0 -k MAC
h -t 1.070073320 -s 3 -d -1 -p CTS -e 38 -c 2 -a 0 -i 0 -k MAC
r -t 1.070378008 -s 2 -d -1 -p CTS -e 38 -c 2 -a 0 -i 0 -k MAC
+ -t 1.070388008 -s 2 -d 3 -p tcp -e 1618 -c 2 -a 0 -i 17 -k MAC 
- -t 1.070388008 -s 2 -d 3 -p tcp -e 1618 -c 2 -a 0 -i 17 -k MAC
h -t 1.070388008 -s 2 -d 3 -p tcp -e 1618 -c 2 -a 0 -i 17 -k MAC
+ -t 1.072000000 -s 0 -d -1 -p cbr -e 1000 -c 2 -a 0 -i 20 -k AGT 
- -t 1.072000000 -s 0 -d -1 -p cbr -e 1000 -c 2 -a 0 -i 20 -k AGT
h -t 1.072000000 -s 0 -d -1 -p cbr -e 1000 -c 2 -a 0 -i 20 -k AGT
+ -t 1.072000000 -s 0 -d 1 -p cbr -e 1020 -c 2 -a 0 -i 20 -k RTR 
- -t 1.072000000 -s 0 -d 1 -p cbr -e 1020 -c 2 -a 0 -i 20 -k RTR
h -t 1.072000000 -s 0 -d 1 -p cbr -e 1020 -c 2 -a 0 -i 20 -k RTR
+ -t 1.080000000 -s 0 -d -1 -p cbr -e 1000 -c 2 -a 0 -i 21 -k AGT 
- -t 1.080000000 -s 0 -d -1 -p cbr -e 1000 -c 2 -a 0 -i 21 -k AGT
h -t 1.080000000 -s 0 -d -1 -p cbr -e 1000 -c 2 -a 0 -i 21 -k AGT
+ -t 1.080000000 -s 0 -d 1 -p cbr -e 1020 -c 2 -a 0 -i 21 -k RTR 
- -t 1.080000000 -s 0 -d 1 -p cbr -e 1020 -c 2 -a 0 -i 21 -k RTR
h -t 1.080000000 -s 0 -d 1 -p cbr -e 1020 -c 2 -a 0 -i 21 -k RTR
d -t 1.080025000 -s 0 -d 1 -p cbr -e 1020 -c 2 -a 0 -i 21 -k IFQ
r -t 1.083332695 -s 3 -d 3 -p tcp -e 1560 -c 2 -a 0 -i 17 -k MAC
+ -t 1.083342695 -s 3 -d -1 -p ACK -e 38 -c 2 -a 0 -i 0 -k MAC 
- -t 1.083342695 -s 3 -d -1 -p ACK -e 38 -c 2 -a 0 -i 0 -k MAC
h -t 1.083342695 -s 3 -d -1 -p ACK -e 38 -c 2 -a 0 -i 0 -k MAC
r -t 1.083357695 -s 3 -d 3 -p tcp -e 1560 -c 2 -a 0 -i 17 -k AGT
+ -t 1.083357695 -s 3 -d -1 -p ack -e 40 -c 2 -a 0 -i 22 -k AGT 
- -t 1.083357695 -s 3 -d -1 -p ack -e 40 -c 2 -a 0 -i 22 -k AGT
h -t 1.083357695 -s 3 -d -1 -p ack -e 40 -c 2 -a 0 -i 22 -k AGT
+ -t 1.083357695 -s 3 -d 2 -p ack -e 60 -c 2 -a 0 -i 22 -k RTR 
- -t 1.083357695 -s 3 -d 2 -p ack -e 60 -c 2 -a 0 -i 22 -k RTR
h -t 1.083357695 -s 3 -d 2 -p ack -e 60 -c 2 -a 0 -i 22 -k RTR
r -t 1.083647383 -s 2 -d -1 -p ACK -e 38 -c 2 -a 0 -i 0 -k MAC
+ -t 1.083737318 -s 0 -d -1 -p RTS -e 44 -c 2 -a 0 -i 0 -k MAC 
- -t 1.083737318 -s 0 -d -1 -p RTS -e 44 -c 2 -a 0 -i 0 -k MAC
h -t 1.083737318 -s 0 -d -1 -p RTS -e 44 -c 2 -a 0 -i 0 -k MAC
r -t 1.084090058 -s 1 -d -1 -p RTS -e 44 -c 2 -a 0 -i 0 -k MAC
+ -t 1.084100058 -s 1 -d -1 -p CTS -e 38 -c 2 -a 0 -i 0 -k MAC 
- -t 1.084100058 -s 1 -d -1 -p CTS -e 38 -c 2 -a 0 -i 0 -k MAC
h -t 1.084100058 -s 1 -d -1 -p CTS -e 38 -c 2 -a 0 -i 0 -k MAC
r -t 1.084404798 -s 0 -d -1 -p CTS -e 38 -c 2 -a 0 -i 0 -k MAC
+ -t 1.084414798 -s 0 -d 1 -p cbr -e 1078 -c 2 -a 0 -i 10 -k MAC 
- -t 1.084414798 -s 0 -d 1 -p cbr -e 1078 -c 2 -a 0 -i 10 -k MAC
h -t 1.084414798 -s 0 -d 1 -p cbr -e 1078 -c 2 -a 0 -i 10 -k MAC
+ -t 1.088000000 -s 0 -d -1 -p cbr -e 1000 -c 2 -a 0 -i 23 -k AGT 
- -t 1.088000000 -s 0 -d -1 -p cbr -e 1000 -c 2 -a 0 -i 23 -k AGT
h -t 1.088000000 -s 0 -d -1 -p cbr -e 1000 -c 2 -a 0 -i 23 -k AGT
+ -t 1.088000000 -s 0 -d 1 -p cbr -e 1020 -c 2 -a 0 -i 23 -k RTR 
- -t 1.088000000 -s 0 -d 1 -p cbr -e 1020 -c 2 -a 0 -i 23 -k RTR
h -t 1.088000000 -s 0 -d 1 -p cbr -e 1020 -c 2 -a 0 -i 23 -k RTR
d -t 1.088025000 -s 0 -d 1 -p cbr -e 1020 -c 2 -a 0 -i 23 -k IFQ
r -t 1.093039538 -s 1 -d 1 -p cbr -e 1020 -c 2 -a 0 -i 10 -k MAC
+ -t 1.093049538 -s 1 -d -1 -p ACK -e 38 -c 2 -a 0 -i 0 -k MAC 
- -t 1.093049538 -s 1 -d -1 -p ACK -e 38 -c 2 -a 0 -i 0 -k MAC
h -t 1.093049538 -s 1 -d -1 -p ACK -e 38 -c 2 -a 0 -i 0 -k MAC
r -t 1.093064538 -s 1 -d 1 -p cbr -e 1020 -c 2 -a 0 -i 10 -k AGT
r -t 1.093354278 -s 0 -d -1 -p ACK -e 38 -c 2 -a 0 -i 0 -k MAC
+ -t 1.093444038 -s 2 -d -1 -p RTS -e 44 -c 2 -a 0 -i 0 -k MAC 
- -t 1.093444038 -s 2 -d -1 -p RTS -e 44 -c 2 -a 0 -i 0 -k MAC
h -t 1.093444038 -s 2 -d -1 -p RTS -e 44 -c 2 -a 0 -i 0 -k MAC
r -t 1.093796726 -s 3 -d -1 -p RTS -e 44 -c 2 -a 0 -i 0 -k MAC
+ -t 1.093806726 -s 3 -d -1 -p CTS -e 38 -c 2 -a 0 -i 0 -k MAC 
- -t 1.093806726 -s 3 -d -1 -p CTS -e 38 -c 2 -a 0 -i 0 -k MAC
h -t 1.093806726 -s 3 -d -1 -p CTS -e 38 -c 2 -a 0 -i 0 -k MAC
r -t 1.094111413 -s 2 -d -1 -p CTS -e 38 -c 2 -a 0 -i 0 -k MAC
+ -t 1.094121413 -s 2 -d 3 -p tcp -e 1618 -c 2 -a 0 -i 18 -k MAC 
- -t 1.094121413 -s 2 -d 3 -p tcp -e 1618 -c 2 -a 0 -i 18 -k MAC
h -t 1.094121413 -s 2 -d 3 -p tcp -e 1618 -c 2 -a 0 -i 18 -k MAC
+ -t 1.096000000 -s 0 -d -1 -p cbr -e 1000 -c 2 -a 0 -i 24 -k AGT 
- -t 1.096000000 -s 0 -d -1 -p cbr -e 1000 -c 2 -a 0 -i 24 -k AGT
h -t 1.096000000 -s 0 -d -1 -p cbr -e 1000 -c 2 -a 0 -i 24 -k AGT
+ -t 1.096000000 -s 0 -d 1 -p cbr -e 1020 -c 2 -a 0 -i 24 -k RTR 
- -t 1.096000000 -s 0 -d 1 -p cbr -e 1020 -c 2 -a 0 -i 24 -k RTR
h -t 1.096000000 -s 0 -d 1 -p cbr -e 1020 -c 2 -a 0 -i 24 -k RTR
+ -t 1.104000000 -s 0 -d -1 -p cbr -e 1000 -c 2 -a 0 -i 25 -k AGT 
- -t 1.104000000 -s 0 -d -1 -p cbr -e 1000 -c 2 -a 0 -i 25 -k AGT
h -t 1.104000000 -s 0 -d -1 -p cbr -e 1000 -c 2 -a 0 -i 25 -k AGT
+ -t 1.104000000 -s 0 -d 1 -p cbr -e 1020 -c 2 -a 0 -i 25 -k RTR 
- -t 1.104000000 -s 0 -d 1 -p cbr -e 1020 -c 2 -a 0 -i 25 -k RTR
h -t 1.104000000 -s 0 -d 1 -p cbr -e 1020 -c 2 -a 0 -i 25 -k RTR
d -t 1.104025000 -s 0 -d 1 -p cbr -e 1020 -c 2 -a 0 -i 25 -k IFQ
r -t 1.107066101 -s 3 -d 3 -p tcp -e 1560 -c 2 -a 0 -i 18 -k MAC
+ -t 1.107076101 -s 3 -d -1 -p ACK -e 38 -c 2 -a 0 -i 0 -k MAC 
- -t 1.107076101 -s 3 -d -1 -p ACK -e 38 -c 2 -a 0 -i 0 -k MAC
h -t 1.107076101 -s 3 -d -1 -p ACK -e 38 -c 2 -a 0 -i 0 -k MAC
r -t 1.107091101 -s 3 -d 3 -p tcp -e 1560 -c 2 -a 0 -i 18 -k AGT
+ -t 1.107091101 -s 3 -d -1 -p ack -e 40 -c 2 -a 0 -i 26 -k AGT 
- -t 1.107091101 -s 3 -d -1 -p ack -e 40 -c 2 -a 0 -i 26 -k AGT
h -t 1.107091101 -s 3 -d -1 -p ack -e 40 -c 2 -a 0 -i 26 -k AGT
+ -t 1.107091101 -s 3 -d 2 -p ack -e 60 -c 2 -a 0 -i 26 -k RTR 
- -t 1.107091101 -s 3 -d 2 -p ack -e 60 -c 2 -a 0 -i 26 -k RTR
h -t 1.107091101 -s 3 -d 2 -p ack -e 60 -c 2 -a 0 -i 26 -k RTR
r -t 1.107380789 -s 2 -d -1 -p ACK -e 38 -c 2 -a 0 -i 0 -k MAC
+ -t 1.107490101 -s 3 -d -1 -p RTS -e 44 -c 2 -a 0 -i 0 -k MAC 
- -t 1.107490101 -s 3 -d -1 -p RTS -e 44 -c 2 -a 0 -i 0 -k MAC
h -t 1.107490101 -s 3 -d -1 -p RTS -e 44 -c 2 -a 0 -i 0 -k MAC
r -t 1.107842789 -s 2 -d -1 -p RTS -e 44 -c 2 -a 0 -i 0 -k MAC
+ -t 1.107852789 -s 2 -d -1 -p CTS -e 38 -c 2 -a 0 -i 0 -k MAC 
- -t 1.107852789 -s 2 -d -1 -p CTS -e 38 -c 2 -a 0 -i 0 -k MAC
h -t 1.107852789 -s 2 -d -1 -p CTS -e 38 -c 2 -a 0 -i 0 -k MAC
r -t 1.108157477 -s 3 -d -1 -p CTS -e 38 -c 2 -a 0 -i 0 -k MAC
+ -t 1.108167477 -s 3 -d 2 -p ack -e 118 -c 2 -a 0 -i 16 -k MAC 
- -t 1.108167477 -s 3 -d 2 -p ack -e 118 -c 2 -a 0 -i 16 -k MAC
h -t 1.108167477 -s 3 -d 2 -p ack -e 118 -c 2 -a 0 -i 16 -k MAC
r -t 1.109112164 -s 2 -d 2 -p ack -e 60 -c 2 -a 0 -i 16 -k MAC
+ -t 1.109122164 -s 2 -d -1 -p ACK -e 38 -c 2 -a 0 -i 0 -k MAC 
- -t 1.109122164 -s 2 -d -1 -p ACK -e 38 -c 2 -a 0 -i 0 -k MAC
h -t 1.109122164 -s 2 -d -1 -p ACK -e 38 -c 2 -a 0 -i 0 -k MAC
r -t 1.109137164 -s 2 -d 2 -p ack -e 60 -c 2 -a 0 -i 16 -k AGT
+ -t 1.109137164 -s 2 -d -1 -p tcp -e 1540 -c 2 -a 0 -i 27 -k AGT 
- -t 1.109137164 -s 2 -d -1 -p tcp -e 1540 -c 2 -a 0 -i 27 -k AGT
h -t 1.109137164 -s 2 -d -1 -p tcp -e 1540 -c 2 -a 0 -i 27 -k AGT
+ -t 1.109137164 -s 2 -d 3 -p tcp -e 1560 -c 2 -a 0 -i 27 -k RTR 
- -t 1.109137164 -s 2 -d 3 -p tcp -e 1560 -c 2 -a 0 -i 27 -k RTR
h -t 1.109137164 -s 2 -d 3 -p tcp -e 1560 -c 2 -a 0 -i 27 -k RTR
+ -t 1.109137164 -s 2 -d -1 -p tcp -e 1540 -c 2 -a 0 -i 28 -k AGT 
- -t 1.109137164 -s 2 -d -1 -p tcp -e 1540 -c 2 -a 0 -i 28 -k AGT
h -t 1.109137164 -s 2 -d -1 -p tcp -e 1540 -c 2 -a 0 -i 28 -k AGT
+ -t 1.109137164 -s 2 -d 3 -p tcp -e 1560 -c 2 -a 0 -i 28 -k RTR 
- -t 1.109137164 -s 2 -d 3 -p tcp -e 1560 -c 2 -a 0 -i 28 -k RTR
h -t 1.109137164 -s 2 -d 3 -p tcp -e 1560 -c 2 -a 0 -i 28 -k RTR
r -t 1.109426852 -s 3 -d -1 -p ACK -e 38 -c 2 -a 0 -i 0 -k MAC
+ -t 1.109576852 -s 3 -d -1 -p RTS -e 44 -c 2 -a 0 -i 0 -k MAC 
- -t 1.109576852 -s 3 -d -1 -p RTS -e 44 -c 2 -a 0 -i 0 -k MAC
h -t 1.109576852 -s 3 -d -1 -p RTS -e 44 -c 2 -a 0 -i 0 -k MAC
r -t 1.109929540 -s 2 -d -1 -p RTS -e 44 -c 2 -a 0 -i 0 -k MAC
+ -t 1.109939540 -s 2 -d -1 -p CTS -e 38 -c 2 -a 0 -i 0 -k MAC 
- -t 1.109939540 -s 2 -d -1 -p CTS -e 38 -c 2 -a 0 -i 0 -k MAC