s 0.031538939 _1_ RTR  --- 0 message 32 [0 0 0 0] ------- [1:255 -1:255 32 0] 
s 0.031853939 _1_ MAC  --- 0 message 90 [0 ffffffff 1 800] ------- [1:255 -1:255 32 0] 
r 0.032574228 _4_ MAC  --- 0 message 32 [0 ffffffff 1 800] ------- [1:255 -1:255 32 0] 
r 0.032574439 _2_ MAC  --- 0 message 32 [0 ffffffff 1 800] ------- [1:255 -1:255 32 0] 
r 0.032574442 _3_ MAC  --- 0 message 32 [0 ffffffff 1 800] ------- [1:255 -1:255 32 0] 
r 0.032574679 _0_ MAC  --- 0 message 32 [0 ffffffff 1 800] ------- [1:255 -1:255 32 0] 
r 0.032599228 _4_ RTR  --- 0 message 32 [0 ffffffff 1 800] ------- [1:255 -1:255 32 0] 
r 0.032599439 _2_ RTR  --- 0 message 32 [0 ffffffff 1 800] ------- [1:255 -1:255 32 0] 
r 0.032599442 _3_ RTR  --- 0 message 32 [0 ffffffff 1 800] ------- [1:255 -1:255 32 0] 
r 0.032599679 _0_ RTR  --- 0 message 32 [0 ffffffff 1 800] ------- [1:255 -1:255 32 0] 
s 0.179336133 _2_ RTR  --- 1 message 32 [0 0 0 0] ------- [2:255 -1:255 32 0] 
s 0.179451133 _2_ MAC  --- 1 message 90 [0 ffffffff 2 800] ------- [2:255 -1:255 32 0] 
r 0.180171467 _4_ MAC  --- 1 message 32 [0 ffffffff 2 800] ------- [2:255 -1:255 32 0] 
r 0.180171532 _0_ MAC  --- 1 message 32 [0 ffffffff 2 800] ------- [2:255 -1:255 32 0] 
r 0.180171633 _1_ MAC  --- 1 message 32 [0 ffffffff 2 800] ------- [2:255 -1:255 32 0] 
r 0.180171821 _3_ MAC  --- 1 message 32 [0 ffffffff 2 800] ------- [2:255 -1:255 32 0] 
r 0.180196467 _4_ RTR  --- 1 message 32 [0 ffffffff 2 800] ------- [2:255 -1:255 32 0] 
r 0.180196532 _0_ RTR  --- 1 message 32 [0 ffffffff 2 800] ------- [2:255 -1:255 32 0] 
r 0.180196633 _1_ RTR  --- 1 message 32 [0 ffffffff 2 800] ------- [2:255 -1:255 32 0] 
r 0.180196821 _3_ RTR  --- 1 message 32 [0 ffffffff 2 800] ------- [2:255 -1:255 32 0] 
s 0.888747441 _3_ RTR  --- 2 message 32 [0 0 0 0] ------- [3:255 -1:255 32 0] 
s 0.889062441 _3_ MAC  --- 2 message 90 [0 ffffffff 3 800] ------- [3:255 -1:255 32 0] 
r 0.889782944 _1_ MAC  --- 2 message 32 [0 ffffffff 3 800] ------- [3:255 -1:255 32 0] 
r 0.889783063 _0_ MAC  --- 2 message 32 [0 ffffffff 3 800] ------- [3:255 -1:255 32 0] 
r 0.889783128 _2_ MAC  --- 2 message 32 [0 ffffffff 3 800] ------- [3:255 -1:255 32 0] 
r 0.889783154 _4_ MAC  --- 2 message 32 [0 ffffffff 3 800] ------- [3:255 -1:255 32 0] 
r 0.889807944 _1_ RTR  --- 2 message 32 [0 ffffffff 3 800] ------- [3:255 -1:255 32 0] 
r 0.889808063 _0_ RTR  --- 2 message 32 [0 ffffffff 3 800] ------- [3:255 -1:255 32 0] 
r 0.889808128 _2_ RTR  --- 2 message 32 [0 ffffffff 3 800] ------- [3:255 -1:255 32 0] 
r 0.889808154 _4_ RTR  --- 2 message 32 [0 ffffffff 3 800] ------- [3:255 -1:255 32 0] 
s 1.000000000 _0_ AGT  --- 3 cbr 1000 [0 0 0 0] ------- [0:0 1:0 32 0] [0] 0 0
r 1.000000000 _0_ RTR  --- 3 cbr 1000 [0 0 0 0] ------- [0:0 1:0 32 0] [0] 0 0
s 1.000000000 _0_ RTR  --- 3 cbr 1020 [0 0 0 0] ------- [0:0 1:0 32 1] [0] 0 0
s 1.000000000 _2_ AGT  --- 4 tcp 40 [0 0 0 0] ------- [2:0 3:0 32 0] [0 0] 0 0
r 1.000000000 _2_ RTR  --- 4 tcp 40 [0 0 0 0] ------- [2:0 3:0 32 0] [0 0] 0 0
s 1.000000000 _2_ RTR  --- 4 tcp 60 [0 0 0 0] ------- [2:0 3:0 32 3] [0 0] 0 0
s 1.000395000 _2_ MAC  --- 0 ARP 86 [0 ffffffff 2 806] ------- [REQUEST 2/2 0/3]
r 1.001083334 _4_ MAC  --- 0 ARP 28 [0 ffffffff 2 806] ------- [REQUEST 2/2 0/3]
r 1.001083399 _0_ MAC  --- 0 ARP 28 [0 ffffffff 2 806] ------- [REQUEST 2/2 0/3]
r 1.001083500 _1_ MAC  --- 0 ARP 28 [0 ffffffff 2 806] ------- [REQUEST 2/2 0/3]
r 1.001083688 _3_ MAC  --- 0 ARP 28 [0 ffffffff 2 806] ------- [REQUEST 2/2 0/3]
s 1.001273399 _0_ MAC  --- 0 ARP 86 [0 ffffffff 0 806] ------- [REQUEST 0/0 0/1]
r 1.001961798 _2_ MAC  --- 0 ARP 28 [0 ffffffff 0 806] ------- [REQUEST 0/0 0/1]
r 1.001962021 _3_ MAC  --- 0 ARP 28 [0 ffffffff 0 806] ------- [REQUEST 0/0 0/1]
r 1.001962096 _4_ MAC  --- 0 ARP 28 [0 ffffffff 0 806] ------- [REQUEST 0/0 0/1]
r 1.001962139 _1_ MAC  --- 0 ARP 28 [0 ffffffff 0 806] ------- [REQUEST 0/0 0/1]
s 1.002037139 _1_ MAC  --- 0 RTS 44 [52e 0 1 0] 
r 1.002389879 _0_ MAC  --- 0 RTS 44 [52e 0 1 0] 
s 1.002399879 _0_ MAC  --- 0 CTS 38 [3f4 1 0 0] 
r 1.002704619 _1_ MAC  --- 0 CTS 38 [3f4 1 0 0] 
s 1.002714619 _1_ MAC  --- 0 ARP 86 [13a 0 1 806] ------- [REPLY 1/1 0/0]
r 1.003403359 _0_ MAC  --- 0 ARP 28 [13a 0 1 806] ------- [REPLY 1/1 0/0]
s 1.003413359 _0_ MAC  --- 0 ACK 38 [0 1 0 0] 
r 1.003718099 _1_ MAC  --- 0 ACK 38 [0 1 0 0] 
s 1.003827982 _3_ MAC  --- 0 RTS 44 [52e 2 3 0] 
r 1.004180670 _2_ MAC  --- 0 RTS 44 [52e 2 3 0] 
s 1.004190670 _2_ MAC  --- 0 CTS 38 [3f4 3 0 0] 
r 1.004495357 _3_ MAC  --- 0 CTS 38 [3f4 3 0 0] 
s 1.004505357 _3_ MAC  --- 0 ARP 86 [13a 2 3 806] ------- [REPLY 3/3 2/2]
r 1.005194045 _2_ MAC  --- 0 ARP 28 [13a 2 3 806] ------- [REPLY 3/3 2/2]
s 1.005204045 _2_ MAC  --- 0 ACK 38 [0 3 0 0] 
r 1.005508733 _3_ MAC  --- 0 ACK 38 [0 3 0 0] 
s 1.005658045 _2_ MAC  --- 0 RTS 44 [62e 3 2 0] 
r 1.006010733 _3_ MAC  --- 0 RTS 44 [62e 3 2 0] 
s 1.006020733 _3_ MAC  --- 0 CTS 38 [4f4 2 0 0] 
r 1.006325420 _2_ MAC  --- 0 CTS 38 [4f4 2 0 0] 
s 1.006335420 _2_ MAC  --- 4 tcp 118 [13a 3 2 800] ------- [2:0 3:0 32 3] [0 0] 0 0
r 1.007280108 _3_ MAC  --- 4 tcp 60 [13a 3 2 800] ------- [2:0 3:0 32 3] [0 0] 1 0
s 1.007290108 _3_ MAC  --- 0 ACK 38 [0 2 0 0] 
r 1.007305108 _3_ AGT  --- 4 tcp 60 [13a 3 2 800] ------- [2:0 3:0 32 3] [0 0] 1 0
s 1.007305108 _3_ AGT  --- 5 ack 40 [0 0 0 0] ------- [3:0 2:0 32 0] [0 0] 0 0
r 1.007305108 _3_ RTR  --- 5 ack 40 [0 0 0 0] ------- [3:0 2:0 32 0] [0 0] 0 0
s 1.007305108 _3_ RTR  --- 5 ack 60 [0 0 0 0] ------- [3:0 2:0 32 2] [0 0] 0 0
r 1.007594796 _2_ MAC  --- 0 ACK 38 [0 2 0 0] 
s 1.007704731 _0_ MAC  --- 0 RTS 44 [242e 1 0 0] 
s 1.008000000 _0_ AGT  --- 6 cbr 1000 [0 0 0 0] ------- [0:0 1:0 32 0] [1] 0 0
r 1.008000000 _0_ RTR  --- 6 cbr 1000 [0 0 0 0] ------- [0:0 1:0 32 0] [1] 0 0
s 1.008000000 _0_ RTR  --- 6 cbr 1020 [0 0 0 0] ------- [0:0 1:0 32 1] [1] 0 0
r 1.008057471 _1_ MAC  --- 0 RTS 44 [242e 1 0 0] 
s 1.008067471 _1_ MAC  --- 0 CTS 38 [22f4 0 0 0] 
r 1.008372211 _0_ MAC  --- 0 CTS 38 [22f4 0 0 0] 
s 1.008382211 _0_ MAC  --- 3 cbr 1078 [13a 1 0 800] ------- [0:0 1:0 32 1] [0] 0 0
s 1.016000000 _0_ AGT  --- 7 cbr 1000 [0 0 0 0] ------- [0:0 1:0 32 0] [2] 0 0
r 1.016000000 _0_ RTR  --- 7 cbr 1000 [0 0 0 0] ------- [0:0 1:0 32 0] [2] 0 0
s 1.016000000 _0_ RTR  --- 7 cbr 1020 [0 0 0 0] ------- [0:0 1:0 32 1] [2] 0 0
r 1.017006951 _1_ MAC  --- 3 cbr 1020 [13a 1 0 800] ------- [0:0 1:0 32 1] [0] 1 0
s 1.017016951 _1_ MAC  --- 0 ACK 38 [0 0 0 0] 
r 1.017031951 _1_ AGT  --- 3 cbr 1020 [13a 1 0 800] ------- [0:0 1:0 32 1] [0] 1 0
r 1.017321691 _0_ MAC  --- 0 ACK 38 [0 0 0 0] 
s 1.017671454 _3_ MAC  --- 0 RTS 44 [62e 2 3 0] 
r 1.018024142 _2_ MAC  --- 0 RTS 44 [62e 2 3 0] 
s 1.018034142 _2_ MAC  --- 0 CTS 38 [4f4 3 0 0] 
r 1.018338830 _3_ MAC  --- 0 CTS 38 [4f4 3 0 0] 
s 1.018348830 _3_ MAC  --- 5 ack 118 [13a 2 3 800] ------- [3:0 2:0 32 2] [0 0] 0 0
r 1.019293517 _2_ MAC  --- 5 ack 60 [13a 2 3 800] ------- [3:0 2:0 32 2] [0 0] 1 0
s 1.019303517 _2_ MAC  --- 0 ACK 38 [0 3 0 0] 
r 1.019318517 _2_ AGT  --- 5 ack 60 [13a 2 3 800] ------- [3:0 2:0 32 2] [0 0] 1 0
s 1.019318517 _2_ AGT  --- 8 tcp 1540 [0 0 0 0] ------- [2:0 3:0 32 0] [1 0] 0 0
r 1.019318517 _2_ RTR  --- 8 tcp 1540 [0 0 0 0] ------- [2:0 3:0 32 0] [1 0] 0 0
s 1.019318517 _2_ RTR  --- 8 tcp 1560 [0 0 0 0] ------- [2:0 3:0 32 3] [1 0] 0 0
s 1.019318517 _2_ AGT  --- 9 tcp 1540 [0 0 0 0] ------- [2:0 3:0 32 0] [2 0] 0 0
r 1.019318517 _2_ RTR  --- 9 tcp 1540 [0 0 0 0] ------- [2:0 3:0 32 0] [2 0] 0 0
s 1.019318517 _2_ RTR  --- 9 tcp 1560 [0 0 0 0] ------- [2:0 3:0 32 3] [2 0] 0 0
r 1.019608205 _3_ MAC  --- 0 ACK 38 [0 3 0 0] 
s 1.019937916 _0_ MAC  --- 0 RTS 44 [242e 1 0 0] 
r 1.020290656 _1_ MAC  --- 0 RTS 44 [242e 1 0 0] 
s 1.020300656 _1_ MAC  --- 0 CTS 38 [22f4 0 0 0] 
r 1.020605396 _0_ MAC  --- 0 CTS 38 [22f4 0 0 0] 
s 1.020615396 _0_ MAC  --- 6 cbr 1078 [13a 1 0 800] ------- [0:0 1:0 32 1] [1] 0 0
s 1.024000000 _0_ AGT  --- 10 cbr 1000 [0 0 0 0] ------- [0:0 1:0 32 0] [3] 0 0
r 1.024000000 _0_ RTR  --- 10 cbr 1000 [0 0 0 0] ------- [0:0 1:0 32 0] [3] 0 0
s 1.024000000 _0_ RTR  --- 10 cbr 1020 [0 0 0 0] ------- [0:0 1:0 32 1] [3] 0 0
r 1.029240136 _1_ MAC  --- 6 cbr 1020 [13a 1 0 800] ------- [0:0 1:0 32 1] [1] 1 0
s 1.029250136 _1_ MAC  --- 0 ACK 38 [0 0 0 0] 
r 1.029265136 _1_ AGT  --- 6 cbr 1020 [13a 1 0 800] ------- [0:0 1:0 32 1] [1] 1 0
r 1.029554877 _0_ MAC  --- 0 ACK 38 [0 0 0 0] 
s 1.029724636 _2_ MAC  --- 0 RTS 44 [350e 3 2 0] 
r 1.030077324 _3_ MAC  --- 0 RTS 44 [350e 3 2 0] 
s 1.030087324 _3_ MAC  --- 0 CTS 38 [33d4 2 0 0] 
r 1.030392012 _2_ MAC  --- 0 CTS 38 [33d4 2 0 0] 
s 1.030402012 _2_ MAC  --- 8 tcp 1618 [13a 3 2 800] ------- [2:0 3:0 32 3] [1 0] 0 0
s 1.032000000 _0_ AGT  --- 11 cbr 1000 [0 0 0 0] ------- [0:0 1:0 32 0] [4] 0 0
r 1.032000000 _0_ RTR  --- 11 cbr 1000 [0 0 0 0] ------- [0:0 1:0 32 0] [4] 0 0
s 1.032000000 _0_ RTR  --- 11 cbr 1020 [0 0 0 0] ------- [0:0 1:0 32 1] [4] 0 0
s 1.040000000 _0_ AGT  --- 12 cbr 1000 [0 0 0 0] ------- [0:0 1:0 32 0] [5] 0 0
r 1.040000000 _0_ RTR  --- 12 cbr 1000 [0 0 0 0] ------- [0:0 1:0 32 0] [5] 0 0
s 1.040000000 _0_ RTR  --- 12 cbr 1020 [0 0 0 0] ------- [0:0 1:0 32 1] [5] 0 0
r 1.043346699 _3_ MAC  --- 8 tcp 1560 [13a 3 2 800] ------- [2:0 3:0 32 3] [1 0] 1 0
s 1.043356699 _3_ MAC  --- 0 ACK 38 [0 2 0 0] 
r 1.043371699 _3_ AGT  --- 8 tcp 1560 [13a 3 2 800] ------- [2:0 3:0 32 3] [1 0] 1 0
s 1.043371699 _3_ AGT  --- 13 ack 40 [0 0 0 0] ------- [3:0 2:0 32 0] [1 0] 0 0
r 1.043371699 _3_ RTR  --- 13 ack 40 [0 0 0 0] ------- [3:0 2:0 32 0] [1 0] 0 0
s 1.043371699 _3_ RTR  --- 13 ack 60 [0 0 0 0] ------- [3:0 2:0 32 2] [1 0] 0 0
r 1.043661387 _2_ MAC  --- 0 ACK 38 [0 2 0 0] 
s 1.043751387 _2_ MAC  --- 0 RTS 44 [350e 3 2 0] 
r 1.044104075 _3_ MAC  --- 0 RTS 44 [350e 3 2 0] 
s 1.044114075 _3_ MAC  --- 0 CTS 38 [33d4 2 0 0] 
r 1.044418762 _2_ MAC  --- 0 CTS 38 [33d4 2 0 0] 
s 1.044428762 _2_ MAC  --- 9 tcp 1618 [13a 3 2 800] ------- [2:0 3:0 32 3] [2 0] 0 0
s 1.048000000 _0_ AGT  --- 14 cbr 1000 [0 0 0 0] ------- [0:0 1:0 32 0] [6] 0 0
r 1.048000000 _0_ RTR  --- 14 cbr 1000 [0 0 0 0] ------- [0:0 1:0 32 0] [6] 0 0
s 1.048000000 _0_ RTR  --- 14 cbr 1020 [0 0 0 0] ------- [0:0 1:0 32 1] [6] 0 0
s 1.056000000 _0_ AGT  --- 15 cbr 1000 [0 0 0 0] ------- [0:0 1:0 32 0] [7] 0 0
r 1.056000000 _0_ RTR  --- 15 cbr 1000 [0 0 0 0] ------- [0:0 1:0 32 0] [7] 0 0
s 1.056000000 _0_ RTR  --- 15 cbr 1020 [0 0 0 0] ------- [0:0 1:0 32 1] [7] 0 0
D 1.056025000 _0_ IFQ  --- 15 cbr 1020 [0 1 0 800] ------- [0:0 1:0 32 1] [7] 0 0
r 1.057373450 _3_ MAC  --- 9 tcp 1560 [13a 3 2 800] ------- [2:0 3:0 32 3] [2 0] 1 0
s 1.057383450 _3_ MAC  --- 0 ACK 38 [0 2 0 0] 
r 1.057398450 _3_ AGT  --- 9 tcp 1560 [13a 3 2 800] ------- [2:0 3:0 32 3] [2 0] 1 0
s 1.057398450 _3_ AGT  --- 16 ack 40 [0 0 0 0] ------- [3:0 2:0 32 0] [2 0] 0 0
r 1.057398450 _3_ RTR  --- 16 ack 40 [0 0 0 0] ------- [3:0 2:0 32 0] [2 0] 0 0
s 1.057398450 _3_ RTR  --- 16 ack 60 [0 0 0 0] ------- [3:0 2:0 32 2] [2 0] 0 0
r 1.057688138 _2_ MAC  --- 0 ACK 38 [0 2 0 0] 
s 1.057837450 _3_ MAC  --- 0 RTS 44 [62e 2 3 0] 
r 1.058190138 _2_ MAC  --- 0 RTS 44 [62e 2 3 0] 
s 1.058200138 _2_ MAC  --- 0 CTS 38 [4f4 3 0 0] 
r 1.058504826 _3_ MAC  --- 0 CTS 38 [4f4 3 0 0] 
s 1.058514826 _3_ MAC  --- 13 ack 118 [13a 2 3 800] ------- [3:0 2:0 32 2] [1 0] 0 0
r 1.059459513 _2_ MAC  --- 13 ack 60 [13a 2 3 800] ------- [3:0 2:0 32 2] [1 0] 1 0
s 1.059469513 _2_ MAC  --- 0 ACK 38 [0 3 0 0] 
r 1.059484513 _2_ AGT  --- 13 ack 60 [13a 2 3 800] ------- [3:0 2:0 32 2] [1 0] 1 0
s 1.059484513 _2_ AGT  --- 17 tcp 1540 [0 0 0 0] ------- [2:0 3:0 32 0] [3 0] 0 0
r 1.059484513 _2_ RTR  --- 17 tcp 1540 [0 0 0 0] ------- [2:0 3:0 32 0] [3 0] 0 0
s 1.059484513 _2_ RTR  --- 17 tcp 1560 [0 0 0 0] ------- [2:0 3:0 32 3] [3 0] 0 0
s 1.059484513 _2_ AGT  --- 18 tcp 1540 [0 0 0 0] ------- [2:0 3:0 32 0] [4 0] 0 0
r 1.059484513 _2_ RTR  --- 18 tcp 1540 [0 0 0 0] ------- [2:0 3:0 32 0] [4 0] 0 0
s 1.059484513 _2_ RTR  --- 18 tcp 1560 [0 0 0 0] ------- [2:0 3:0 32 3] [4 0] 0 0
r 1.059774201 _3_ MAC  --- 0 ACK 38 [0 3 0 0] 
s 1.059943912 _0_ MAC  --- 0 RTS 44 [242e 1 0 0] 
r 1.060296652 _1_ MAC  --- 0 RTS 44 [242e 1 0 0] 
s 1.060306652 _1_ MAC  --- 0 CTS 38 [22f4 0 0 0] 
r 1.060611392 _0_ MAC  --- 0 CTS 38 [22f4 0 0 0] 
s 1.060621392 _0_ MAC  --- 7 cbr 1078 [13a 1 0 800] ------- [0:0 1:0 32 1] [2] 0 0
s 1.064000000 _0_ AGT  --- 19 cbr 1000 [0 0 0 0] ------- [0:0 1:0 32 0] [8] 0 0
r 1.064000000 _0_ RTR  --- 19 cbr 1000 [0 0 0 0] ------- [0:0 1:0 32 0] [8] 0 0
s 1.064000000 _0_ RTR  --- 19 cbr 1020 [0 0 0 0] ------- [0:0 1:0 32 1] [8] 0 0
D 1.064025000 _0_ IFQ  --- 19 cbr 1020 [0 1 0 800] ------- [0:0 1:0 32 1] [8] 0 0
r 1.069246133 _1_ MAC  --- 7 cbr 1020 [13a 1 0 800] ------- [0:0 1:0 32 1] [2] 1 0
s 1.069256133 _1_ MAC  --- 0 ACK 38 [0 0 0 0] 
r 1.069271133 _1_ AGT  --- 7 cbr 1020 [13a 1 0 800] ------- [0:0 1:0 32 1] [2] 1 0
r 1.069560873 _0_ MAC  --- 0 ACK 38 [0 0 0 0] 
s 1.069710632 _2_ MAC  --- 0 RTS 44 [350e 3 2 0] 
r 1.070063320 _3_ MAC  --- 0 RTS 44 [350e 3 2 0] 
s 1.070073320 _3_ MAC  --- 0 CTS 38 [33d4 2 0 0] 
r 1.070378008 _2_ MAC  --- 0 CTS 38 [33d4 2 0 0] 
s 1.070388008 _2_ MAC  --- 17 tcp 1618 [13a 3 2 800] ------- [2:0 3:0 32 3] [3 0] 0 0
s 1.072000000 _0_ AGT  --- 20 cbr 1000 [0 0 0 0] ------- [0:0 1:0 32 0] [9] 0 0
r 1.072000000 _0_ RTR  --- 20 cbr 1000 [0 0 0 0] ------- [0:0 1:0 32 0] [9] 0 0
s 1.072000000 _0_ RTR  --- 20 cbr 1020 [0 0 0 0] ------- [0:0 1:0 32 1] [9] 0 0
s 1.080000000 _0_ AGT  --- 21 cbr 1000 [0 0 0 0] ------- [0:0 1:0 32 0] [10] 0 0
r 1.080000000 _0_ RTR  --- 21 cbr 1000 [0 0 0 0] ------- [0:0 1:0 32 0] [10] 0 0
s 1.080000000 _0_ RTR  --- 21 cbr 1020 [0 0 0 0] ------- [0:0 1:0 32 1] [10] 0 0
D 1.080025000 _0_ IFQ  --- 21 cbr 1020 [0 1 0 800] ------- [0:0 1:0 32 1] [10] 0 0
r 1.083332695 _3_ MAC  --- 17 tcp 1560 [13a 3 2 800] ------- [2:0 3:0 32 3] [3 0] 1 0
s 1.083342695 _3_ MAC  --- 0 ACK 38 [0 2 0 0] 
r 1.083357695 _3_ AGT  --- 17 tcp 1560 [13a 3 2 800] ------- [2:0 3:0 32 3] [3 0] 1 0
s 1.083357695 _3_ AGT  --- 22 ack 40 [0 0 0 0] ------- [3:0 2:0 32 0] [3 0] 0 0
r 1.083357695 _3_ RTR  --- 22 ack 40 [0 0 0 0] ------- [3:0 2:0 32 0] [3 0] 0 0
s 1.083357695 _3_ RTR  --- 22 ack 60 [0 0 0 0] ------- [3:0 2:0 32 2] [3 0] 0 0
r 1.083647383 _2_ MAC  --- 0 ACK 38 [0 2 0 0] 
s 1.083737318 _0_ MAC  --- 0 RTS 44 [242e 1 0 0] 
r 1.084090058 _1_ MAC  --- 0 RTS 44 [242e 1 0 0] 
s 1.084100058 _1_ MAC  --- 0 CTS 38 [22f4 0 0 0] 
r 1.084404798 _0_ MAC  --- 0 CTS 38 [22f4 0 0 0] 
s 1.084414798 _0_ MAC  --- 10 cbr 1078 [13a 1 0 800] ------- [0:0 1:0 32 1] [3] 0 0
s 1.088000000 _0_ AGT  --- 23 cbr 1000 [0 0 0 0] ------- [0:0 1:0 32 0] [11] 0 0
r 1.088000000 _0_ RTR  --- 23 cbr 1000 [0 0 0 0] ------- [0:0 1:0 32 0] [11] 0 0
s 1.088000000 _0_ RTR  --- 23 cbr 1020 [0 0 0 0] ------- [0:0 1:0 32 1] [11] 0 0
D 1.088025000 _0_ IFQ  --- 23 cbr 1020 [0 1 0 800] ------- [0:0 1:0 32 1] [11] 0 0
r 1.093039538 _1_ MAC  --- 10 cbr 1020 [13a 1 0 800] ------- [0:0 1:0 32 1] [3] 1 0
s 1.093049538 _1_ MAC  --- 0 ACK 38 [0 0 0 0] 
r 1.093064538 _1_ AGT  --- 10 cbr 1020 [13a 1 0 800] ------- [0:0 1:0 32 1] [3] 1 0
r 1.093354278 _0_ MAC  --- 0 ACK 38 [0 0 0 0] 
s 1.093444038 _2_ MAC  --- 0 RTS 44 [350e 3 2 0] 
r 1.093796726 _3_ MAC  --- 0 RTS 44 [350e 3 2 0] 
s 1.093806726 _3_ MAC  --- 0 CTS 38 [33d4 2 0 0] 
r 1.094111413 _2_ MAC  --- 0 CTS 38 [33d4 2 0 0] 
s 1.094121413 _2_ MAC  --- 18 tcp 1618 [13a 3 2 800] ------- [2:0 3:0 32 3] [4 0] 0 0
s 1.096000000 _0_ AGT  --- 24 cbr 1000 [0 0 0 0] ------- [0:0 1:0 32 0] [12] 0 0
r 1.096000000 _0_ RTR  --- 24 cbr 1000 [0 0 0 0] ------- [0:0 1:0 32 0] [12] 0 0
s 1.096000000 _0_ RTR  --- 24 cbr 1020 [0 0 0 0] ------- [0:0 1:0 32 1] [12] 0 0
s 1.104000000 _0_ AGT  --- 25 cbr 1000 [0 0 0 0] ------- [0:0 1:0 32 0] [13] 0 0
r 1.104000000 _0_ RTR  --- 25 cbr 1000 [0 0 0 0] ------- [0:0 1:0 32 0] [13] 0 0
s 1.104000000 _0_ RTR  --- 25 cbr 1020 [0 0 0 0] ------- [0:0 1:0 32 1] [13] 0 0
D 1.104025000 _0_ IFQ  --- 25 cbr 1020 [0 1 0 800] ------- [0:0 1:0 32 1] [13] 0 0
r 1.107066101 _3_ MAC  --- 18 tcp 1560 [13a 3 2 800] ------- [2:0 3:0 32 3] [4 0] 1 0
s 1.107076101 _3_ MAC  --- 0 ACK 38 [0 2 0 0] 
r 1.107091101 _3_ AGT  --- 18 tcp 1560 [13a 3 2 800] ------- [2:0 3:0 32 3] [4 0] 1 0
s 1.107091101 _3_ AGT  --- 26 ack 40 [0 0 0 0] ------- [3:0 2:0 32 0] [4 0] 0 0
r 1.107091101 _3_ RTR  --- 26 ack 40 [0 0 0 0] ------- [3:0 2:0 32 0] [4 0] 0 0
s 1.107091101 _3_ RTR  --- 26 ack 60 [0 0 0 0] ------- [3:0 2:0 32 2] [4 0] 0 0
r 1.107380789 _2_ MAC  --- 0 ACK 38 [0 2 0 0] 
s 1.107490101 _3_ MAC  --- 0 RTS 44 [62e 2 3 0] 
r 1.107842789 _2_ MAC  --- 0 RTS 44 [62e 2 3 0] 
s 1.107852789 _2_ MAC  --- 0 CTS 38 [4f4 3 0 0] 
r 1.108157477 _3_ MAC  --- 0 CTS 38 [4f4 3 0 0] 
s 1.108167477 _3_ MAC  --- 16 ack 118 [13a 2 3 800] ------- [3:0 2:0 32 2] [2 0] 0 0
r 1.109112164 _2_ MAC  --- 16 ack 60 [13a 2 3 800] ------- [3:0 2:0 32 2] [2 0] 1 0
s 1.109122164 _2_ MAC  --- 0 ACK 38 [0 3 0 0] 
r 1.109137164 _2_ AGT  --- 16 ack 60 [13a 2 3 800] ------- [3:0 2:0 32 2] [2 0] 1 0
s 1.109137164 _2_ AGT  --- 27 tcp 1540 [0 0 0 0] ------- [2:0 3:0 32 0] [5 0] 0 0
r 1.109137164 _2_ RTR  --- 27 tcp 1540 [0 0 0 0] ------- [2:0 3:0 32 0] [5 0] 0 0
s 1.109137164 _2_ RTR  --- 27 tcp 1560 [0 0 0 0] ------- [2:0 3:0 32 3] [5 0] 0 0
s 1.109137164 _2_ AGT  --- 28 tcp 1540 [0 0 0 0] ------- [2:0 3:0 32 0] [6 0] 0 0
r 1.109137164 _2_ RTR  --- 28 tcp 1540 [0 0 0 0] ------- [2:0 3:0 32 0] [6 0] 0 0
s 1.109137164 _2_ RTR  --- 28 tcp 1560 [0 0 0 0] ------- [2:0 3:0 32 3] [6 0] 0 0
r 1.109426852 _3_ MAC  --- 0 ACK 38 [0 3 0 0] 
s 1.109576852 _3_ MAC  --- 0 RTS 44 [62e 2 3 0] 
r 1.109929540 _2_ MAC  --- 0 RTS 44 [62e 2 3 0] 
s 1.109939540 _2_ MAC  --- 0 CTS 38 [4f4 3 0 0] 
r 1.110244228 _3_ MAC  --- 0 CTS 38 [4f4 3 0 0] 
s 1.110254228 _3_ MAC  --- 22 ack 118 [13a 2 3 800] ------- [3:0 2:0 32 2] [3 0] 0 0
r 1.111198915 _2_ MAC  --- 22 ack 60 [13a 2 3 800] ------- [3:0 2:0 32 2] [3 0] 1 0
s 1.111208915 _2_ MAC  --- 0 ACK 38 [0 3 0 0] 
r 1.111223915 _2_ AGT  --- 22 ack 60 [13a 2 3 800] ------- [3:0 2:0 32 2] [3 0] 1 0
s 1.111223915 _2_ AGT  --- 29 tcp 1540 [0 0 0 0] ------- [2:0 3:0 32 0] [7 0] 0 0
r 1.111223915 _2_ RTR  --- 29 tcp 1540 [0 0 0 0] ------- [2:0 3:0 32 0] [7 0] 0 0
s 1.111223915 _2_ RTR  --- 29 tcp 1560 [0 0 0 0] ------- [2:0 3:0 32 3] [7 0] 0 0
s 1.111223915 _2_ AGT  --- 30 tcp 1540 [0 0 0 0] ------- [2:0 3:0 32 0] [8 0] 0 0
r 1.111223915 _2_ RTR  --- 30 tcp 1540 [0 0 0 0] ------- [2:0 3:0 32 0] [8 0] 0 0
s 1.111223915 _2_ RTR  --- 30 tcp 1560 [0 0 0 0] ------- [2:0 3:0 32 3] [8 0] 0 0
r 1.111513603 _3_ MAC  --- 0 ACK 38 [0 3 0 0] 
s 1.111622915 _2_ MAC  --- 0 RTS 44 [350e 3 2 0] 
r 1.111975603 _3_ MAC  --- 0 RTS 44 [350e 3 2 0] 
s 1.111985603 _3_ MAC  --- 0 CTS 38 [33d4 2 0 0] 
s 1.112000000 _0_ AGT  --- 32 cbr 1000 [0 0 0 0] ------- [0:0 1:0 32 0] [14] 0 0
r 1.112000000 _0_ RTR  --- 32 cbr 1000 [0 0 0 0] ------- [0:0 1:0 32 0] [14] 0 0
s 1.112000000 _0_ RTR  --- 32 cbr 1020 [0 0 0 0] ------- [0:0 1:0 32 1] [14] 0 0
D 1.112025000 _0_ IFQ  --- 32 cbr 1020 [0 1 0 800] ------- [0:0 1:0 32 1] [14] 0 0
r 1.112290291 _2_ MAC  --- 0 CTS 38 [33d4 2 0 0] 
s 1.112300291 _2_ MAC  --- 27 tcp 1618 [13a 3 2 800] ------- [2:0 3:0 32 3] [5 0] 0 0
s 1.120000000 _0_ AGT  --- 33 cbr 1000 [0 0 0 0] ------- [0:0 1:0 32 0] [15] 0 0
r 1.120000000 _0_ RTR  --- 33 cbr 1000 [0 0 0 0] ------- [0:0 1:0 32 0] [15] 0 0
s 1.120000000 _0_ RTR  --- 33 cbr 1020 [0 0 0 0] ------- [0:0 1:0 32 1] [15] 0 0
D 1.120025000 _0_ IFQ  --- 33 cbr 1020 [0 1 0 800] ------- [0:0 1:0 32 1] [15] 0 0
s 1.121224081 _0_ RTR  --- 31 message 32 [0 0 0 0] ------- [0:255 -1:255 32 0] 
D 1.121249081 _0_ IFQ  --- 24 cbr 1020 [0 1 0 800] ------- [0:0 1:0 32 1] [12] 0 0
r 1.125244978 _3_ MAC  --- 27 tcp 1560 [13a 3 2 800] ------- [2:0 3:0 32 3] [5 0] 1 0
s 1.125254978 _3_ MAC  --- 0 ACK 38 [0 2 0 0] 
r 1.125269978 _3_ AGT  --- 27 tcp 1560 [13a 3 2 800] ------- [2:0 3:0 32 3] [5 0] 1 0
s 1.125269978 _3_ AGT  --- 34 ack 40 [0 0 0 0] ------- [3:0 2:0 32 0] [5 0] 0 0
r 1.125269978 _3_ RTR  --- 34 ack 40 [0 0 0 0] ------- [3:0 2:0 32 0] [5 0] 0 0
s 1.125269978 _3_ RTR  --- 34 ack 60 [0 0 0 0] ------- [3:0 2:0 32 2] [5 0] 0 0
r 1.125559666 _2_ MAC  --- 0 ACK 38 [0 2 0 0] 
s 1.125669601 _0_ MAC  --- 0 RTS 44 [242e 1 0 0] 
r 1.126022341 _1_ MAC  --- 0 RTS 44 [242e 1 0 0] 
s 1.126032341 _1_ MAC  --- 0 CTS 38 [22f4 0 0 0] 
r 1.126337081 _0_ MAC  --- 0 CTS 38 [22f4 0 0 0] 
s 1.126347081 _0_ MAC  --- 11 cbr 1078 [13a 1 0 800] ------- [0:0 1:0 32 1] [4] 0 0
s 1.128000000 _0_ AGT  --- 35 cbr 1000 [0 0 0 0] ------- [0:0 1:0 32 0] [16] 0 0
r 1.128000000 _0_ RTR  --- 35 cbr 1000 [0 0 0 0] ------- [0:0 1:0 32 0] [16] 0 0
s 1.128000000 _0_ RTR  --- 35 cbr 1020 [0 0 0 0] ------- [0:0 1:0 32 1] [16] 0 0
D 1.128025000 _0_ IFQ  --- 35 cbr 1020 [0 1 0 800] ------- [0:0 1:0 32 1] [16] 0 0
r 1.134971821 _1_ MAC  --- 11 cbr 1020 [13a 1 0 800] ------- [0:0 1:0 32 1] [4] 1 0
s 1.134981821 _1_ MAC  --- 0 ACK 38 [0 0 0 0] 
r 1.134996821 _1_ AGT  --- 11 cbr 1020 [13a 1 0 800] ------- [0:0 1:0 32 1] [4] 1 0
r 1.135286562 _0_ MAC  --- 0 ACK 38 [0 0 0 0] 
s 1.135396562 _0_ MAC  --- 31 message 90 [0 ffffffff 0 800] ------- [0:255 -1:255 32 0] 
s 1.136000000 _0_ AGT  --- 36 cbr 1000 [0 0 0 0] ------- [0:0 1:0 32 0] [17] 0 0
r 1.136000000 _0_ RTR  --- 36 cbr 1000 [0 0 0 0] ------- [0:0 1:0 32 0] [17] 0 0
s 1.136000000 _0_ RTR  --- 36 cbr 1020 [0 0 0 0] ------- [0:0 1:0 32 1] [17] 0 0
r 1.136116960 _2_ MAC  --- 31 message 32 [0 ffffffff 0 800] ------- [0:255 -1:255 32 0] 
r 1.136117184 _3_ MAC  --- 31 message 32 [0 ffffffff 0 800] ------- [0:255 -1:255 32 0] 
r 1.136117258 _4_ MAC  --- 31 message 32 [0 ffffffff 0 800] ------- [0:255 -1:255 32 0] 
r 1.136117302 _1_ MAC  --- 31 message 32 [0 ffffffff 0 800] ------- [0:255 -1:255 32 0] 
r 1.136141960 _2_ RTR  --- 31 message 32 [0 ffffffff 0 800] ------- [0:255 -1:255 32 0] 
r 1.136142184 _3_ RTR  --- 31 message 32 [0 ffffffff 0 800] ------- [0:255 -1:255 32 0] 
r 1.136142258 _4_ RTR  --- 31 message 32 [0 ffffffff 0 800] ------- [0:255 -1:255 32 0] 
r 1.136142302 _1_ RTR  --- 31 message 32 [0 ffffffff 0 800] ------- [0:255 -1:255 32 0] 
s 1.136286562 _0_ MAC  --- 0 RTS 44 [242e 1 0 0] 
r 1.136639302 _1_ MAC  --- 0 RTS 44 [242e 1 0 0] 
s 1.136649302 _1_ MAC  --- 0 CTS 38 [22f4 0 0 0] 
r 1.136954042 _0_ MAC  --- 0 CTS 38 [22f4 0 0 0] 
s 1.136964042 _0_ MAC  --- 12 cbr 1078 [13a 1 0 800] ------- [0:0 1:0 32 1] [5] 0 0
s 1.144000000 _0_ AGT  --- 37 cbr 1000 [0 0 0 0] ------- [0:0 1:0 32 0] [18] 0 0
r 1.144000000 _0_ RTR  --- 37 cbr 1000 [0 0 0 0] ------- [0:0 1:0 32 0] [18] 0 0
s 1.144000000 _0_ RTR  --- 37 cbr 1020 [0 0 0 0] ------- [0:0 1:0 32 1] [18] 0 0
r 1.145588782 _1_ MAC  --- 12 cbr 1020 [13a 1 0 800] ------- [0:0 1:0 32 1] [5] 1 0
s 1.145598782 _1_ MAC  --- 0 ACK 38 [0 0 0 0] 
r 1.145613782 _1_ AGT  --- 12 cbr 1020 [13a 1 0 800] ------- [0:0 1:0 32 1] [5] 1 0
r 1.145903522 _0_ MAC  --- 0 ACK 38 [0 0 0 0] 
s 1.146213285 _3_ MAC  --- 0 RTS 44 [62e 2 3 0] 
r 1.146565973 _2_ MAC  --- 0 RTS 44 [62e 2 3 0] 
s 1.146575973 _2_ MAC  --- 0 CTS 38 [4f4 3 0 0] 
r 1.146880660 _3_ MAC  --- 0 CTS 38 [4f4 3 0 0] 
s 1.146890660 _3_ MAC  --- 26 ack 118 [13a 2 3 800] ------- [3:0 2:0 32 2] [4 0] 0 0
r 1.147835348 _2_ MAC  --- 26 ack 60 [13a 2 3 800] ------- [3:0 2:0 32 2] [4 0] 1 0
s 1.147845348 _2_ MAC  --- 0 ACK 38 [0 3 0 0] 
r 1.147860348 _2_ AGT  --- 26 ack 60 [13a 2 3 800] ------- [3:0 2:0 32 2] [4 0] 1 0
s 1.147860348 _2_ AGT  --- 38 tcp 1540 [0 0 0 0] ------- [2:0 3:0 32 0] [9 0] 0 0
r 1.147860348 _2_ RTR  --- 38 tcp 1540 [0 0 0 0] ------- [2:0 3:0 32 0] [9 0] 0 0
s 1.147860348 _2_ RTR  --- 38 tcp 1560 [0 0 0 0] ------- [2:0 3:0 32 3] [9 0] 0 0
s 1.147860348 _2_ AGT  --- 39 tcp 1540 [0 0 0 0] ------- [2:0 3:0 32 0] [10 0] 0 0
r 1.147860348 _2_ RTR  --- 39 tcp 1540 [0 0 0 0] ------- [2:0 3:0 32 0] [10 0] 0 0
s 1.147860348 _2_ RTR  --- 39 tcp 1560 [0 0 0 0] ------- [2:0 3:0 32 3] [10 0] 0 0
r 1.148150036 _3_ MAC  --- 0 ACK 38 [0 3 0 0] 
s 1.148279747 _0_ MAC  --- 0 RTS 44 [242e 1 0 0] 
r 1.148632487 _1_ MAC  --- 0 RTS 44 [242e 1 0 0] 
s 1.148642487 _1_ MAC  --- 0 CTS 38 [22f4 0 0 0] 
r 1.148947227 _0_ MAC  --- 0 CTS 38 [22f4 0 0 0] 
s 1.148957227 _0_ MAC  --- 14 cbr 1078 [13a 1 0 800] ------- [0:0 1:0 32 1] [6] 0 0
s 1.152000000 _0_ AGT  --- 40 cbr 1000 [0 0 0 0] ------- [0:0 1:0 32 0] [19] 0 0
r 1.152000000 _0_ RTR  --- 40 cbr 1000 [0 0 0 0] ------- [0:0 1:0 32 0] [19] 0 0
s 1.152000000 _0_ RTR  --- 40 cbr 1020 [0 0 0 0] ------- [0:0 1:0 32 1] [19] 0 0
r 1.157581967 _1_ MAC  --- 14 cbr 1020 [13a 1 0 800] ------- [0:0 1:0 32 1] [6] 1 0
s 1.157591967 _1_ MAC  --- 0 ACK 38 [0 0 0 0] 
r 1.157606967 _1_ AGT  --- 14 cbr 1020 [13a 1 0 800] ------- [0:0 1:0 32 1] [6] 1 0
r 1.157896707 _0_ MAC  --- 0 ACK 38 [0 0 0 0] 
s 1.157966467 _2_ MAC  --- 0 RTS 44 [350e 3 2 0] 
r 1.158319155 _3_ MAC  --- 0 RTS 44 [350e 3 2 0] 
s 1.158329155 _3_ MAC  --- 0 CTS 38 [33d4 2 0 0] 
r 1.158633842 _2_ MAC  --- 0 CTS 38 [33d4 2 0 0] 
s 1.158643842 _2_ MAC  --- 28 tcp 1618 [13a 3 2 800] ------- [2:0 3:0 32 3] [6 0] 0 0
s 1.160000000 _0_ AGT  --- 41 cbr 1000 [0 0 0 0] ------- [0:0 1:0 32 0] [20] 0 0
r 1.160000000 _0_ RTR  --- 41 cbr 1000 [0 0 0 0] ------- [0:0 1:0 32 0] [20] 0 0
s 1.160000000 _0_ RTR  --- 41 cbr 1020 [0 0 0 0] ------- [0:0 1:0 32 1] [20] 0 0
s 1.168000000 _0_ AGT  --- 42 cbr 1000 [0 0 0 0] ------- [0:0 1:0 32 0] [21] 0 0
r 1.168000000 _0_ RTR  --- 42 cbr 1000 [0 0 0 0] ------- [0:0 1:0 32 0] [21] 0 0
s 1.168000000 _0_ RTR  --- 42 cbr 1020 [0 0 0 0] ------- [0:0 1:0 32 1] [21] 0 0
D 1.168025000 _0_ IFQ  --- 42 cbr 1020 [0 1 0 800] ------- [0:0 1:0 32 1] [21] 0 0
r 1.171588530 _3_ MAC  --- 28 tcp 1560 [13a 3 2 800] ------- [2:0 3:0 32 3] [6 0] 1 0
s 1.171598530 _3_ MAC  --- 0 ACK 38 [0 2 0 0] 
r 1.171613530 _3_ AGT  --- 28 tcp 1560 [13a 3 2 800] ------- [2:0 3:0 32 3] [6 0] 1 0
s 1.171613530 _3_ AGT  --- 43 ack 40 [0 0 0 0] ------- [3:0 2:0 32 0] [6 0] 0 0
r 1.171613530 _3_ RTR  --- 43 ack 40 [0 0 0 0] ------- [3:0 2:0 32 0] [6 0] 0 0
s 1.171613530 _3_ RTR  --- 43 ack 60 [0 0 0 0] ------- [3:0 2:0 32 2] [6 0] 0 0
r 1.171903218 _2_ MAC  --- 0 ACK 38 [0 2 0 0] 
s 1.172133218 _2_ MAC  --- 0 RTS 44 [350e 3 2 0] 
r 1.172485906 _3_ MAC  --- 0 RTS 44 [350e 3 2 0] 
s 1.172495906 _3_ MAC  --- 0 CTS 38 [33d4 2 0 0] 
r 1.172800593 _2_ MAC  --- 0 CTS 38 [33d4 2 0 0] 
s 1.172810593 _2_ MAC  --- 29 tcp 1618 [13a 3 2 800] ------- [2:0 3:0 32 3] [7 0] 0 0
s 1.176000000 _0_ AGT  --- 44 cbr 1000 [0 0 0 0] ------- [0:0 1:0 32 0] [22] 0 0
r 1.176000000 _0_ RTR  --- 44 cbr 1000 [0 0 0 0] ------- [0:0 1:0 32 0] [22] 0 0
s 1.176000000 _0_ RTR  --- 44 cbr 1020 [0 0 0 0] ------- [0:0 1:0 32 1] [22] 0 0
D 1.176025000 _0_ IFQ  --- 44 cbr 1020 [0 1 0 800] ------- [0:0 1:0 32 1] [22] 0 0
s 1.184000000 _0_ AGT  --- 45 cbr 1000 [0 0 0 0] ------- [0:0 1:0 32 0] [23] 0 0
r 1.184000000 _0_ RTR  --- 45 cbr 1000 [0 0 0 0] ------- [0:0 1:0 32 0] [23] 0 0
s 1.184000000 _0_ RTR  --- 45 cbr 1020 [0 0 0 0] ------- [0:0 1:0 32 1] [23] 0 0
D 1.184025000 _0_ IFQ  --- 45 cbr 1020 [0 1 0 800] ------- [0:0 1:0 32 1] [23] 0 0
r 1.185755281 _3_ MAC  --- 29 tcp 1560 [13a 3 2 800] ------- [2:0 3:0 32 3] [7 0] 1 0
s 1.185765281 _3_ MAC  --- 0 ACK 38 [0 2 0 0] 
r 1.185780281 _3_ AGT  --- 29 tcp 1560 [13a 3 2 800] ------- [2:0 3:0 32 3] [7 0] 1 0
s 1.185780281 _3_ AGT  --- 46 ack 40 [0 0 0 0] ------- [3:0 2:0 32 0] [7 0] 0 0
r 1.185780281 _3_ RTR  --- 46 ack 40 [0 0 0 0] ------- [3:0 2:0 32 0] [7 0] 0 0
s 1.185780281 _3_ RTR  --- 46 ack 60 [0 0 0 0] ------- [3:0 2:0 32 2] [7 0] 0 0
r 1.186069969 _2_ MAC  --- 0 ACK 38 [0 2 0 0] 
s 1.186199904 _0_ MAC  --- 0 RTS 44 [242e 1 0 0] 
r 1.186552644 _1_ MAC  --- 0 RTS 44 [242e 1 0 0] 
s 1.186562644 _1_ MAC  --- 0 CTS 38 [22f4 0 0 0] 
r 1.186867384 _0_ MAC  --- 0 CTS 38 [22f4 0 0 0] 
s 1.186877384 _0_ MAC  --- 20 cbr 1078 [13a 1 0 800] ------- [0:0 1:0 32 1] [9] 0 0
s 1.192000000 _0_ AGT  --- 47 cbr 1000 [0 0 0 0] ------- [0:0 1:0 32 0] [24] 0 0
r 1.192000000 _0_ RTR  --- 47 cbr 1000 [0 0 0 0] ------- [0:0 1:0 32 0] [24] 0 0
s 1.192000000 _0_ RTR  --- 47 cbr 1020 [0 0 0 0] ------- [0:0 1:0 32 1] [24] 0 0
D 1.192025000 _0_ IFQ  --- 47 cbr 1020 [0 1 0 800] ------- [0:0 1:0 32 1] [24] 0 0
r 1.195502124 _1_ MAC  --- 20 cbr 1020 [13a 1 0 800] ------- [0:0 1:0 32 1] [9] 1 0
s 1.195512124 _1_ MAC  --- 0 ACK 38 [0 0 0 0] 
r 1.195527124 _1_ AGT  --- 20 cbr 1020 [13a 1 0 800] ------- [0:0 1:0 32 1] [9] 1 0
r 1.195816864 _0_ MAC  --- 0 ACK 38 [0 0 0 0] 
s 1.196006627 _3_ MAC  --- 0 RTS 44 [62e 2 3 0] 
r 1.196359315 _2_ MAC  --- 0 RTS 44 [62e 2 3 0] 
s 1.196369315 _2_ MAC  --- 0 CTS 38 [4f4 3 0 0] 
r 1.196674002 _3_ MAC  --- 0 CTS 38 [4f4 3 0 0] 
s 1.196684002 _3_ MAC  --- 34 ack 118 [13a 2 3 800] ------- [3:0 2:0 32 2] [5 0] 0 0
r 1.197628690 _2_ MAC  --- 34 ack 60 [13a 2 3 800] ------- [3:0 2:0 32 2] [5 0] 1 0
s 1.197638690 _2_ MAC  --- 0 ACK 38 [0 3 0 0] 
r 1.197653690 _2_ AGT  --- 34 ack 60 [13a 2 3 800] ------- [3:0 2:0 32 2] [5 0] 1 0
s 1.197653690 _2_ AGT  --- 48 tcp 1540 [0 0 0 0] ------- [2:0 3:0 32 0] [11 0] 0 0
r 1.197653690 _2_ RTR  --- 48 tcp 1540 [0 0 0 0] ------- [2:0 3:0 32 0] [11 0] 0 0
s 1.197653690 _2_ RTR  --- 48 tcp 1560 [0 0 0 0] ------- [2:0 3:0 32 3] [11 0] 0 0
s 1.197653690 _2_ AGT  --- 49 tcp 1540 [0 0 0 0] ------- [2:0 3:0 32 0] [12 0] 0 0
r 1.197653690 _2_ RTR  --- 49 tcp 1540 [0 0 0 0] ------- [2:0 3:0 32 0] [12 0] 0 0
s 1.197653690 _2_ RTR  --- 49 tcp 1560 [0 0 0 0] ------- [2:0 3:0 32 3] [12 0] 0 0
r 1.197943378 _3_ MAC  --- 0 ACK 38 [0 3 0 0] 
s 1.197993378 _3_ MAC  --- 0 RTS 44 [62e 2 3 0] 
r 1.198346066 _2_ MAC  --- 0 RTS 44 [62e 2 3 0] 
s 1.198356066 _2_ MAC  --- 0 CTS 38 [4f4 3 0 0] 
r 1.198660753 _3_ MAC  --- 0 CTS 38 [4f4 3 0 0] 
s 1.198670753 _3_ MAC  --- 43 ack 118 [13a 2 3 800] ------- [3:0 2:0 32 2] [6 0] 0 0
r 1.199615441 _2_ MAC  --- 43 ack 60 [13a 2 3 800] ------- [3:0 2:0 32 2] [6 0] 1 0
s 1.199625441 _2_ MAC  --- 0 ACK 38 [0 3 0 0] 
r 1.199640441 _2_ AGT  --- 43 ack 60 [13a 2 3 800] ------- [3:0 2:0 32 2] [6 0] 1 0
s 1.199640441 _2_ AGT  --- 50 tcp 1540 [0 0 0 0] ------- [2:0 3:0 32 0] [13 0] 0 0